ITEM: TIMESTEP
0
ITEM: NUMBER OF ATOMS
9
ITEM: BOX BOUNDS pp pp pp
-120.2565 120.2565
-120.2565 120.2565
-120.2565 120.2565
ITEM: ATOMS id type x y z
340942 1 -1.71795 -1.71795 -1.71795
341040 4 -1.71795 -1.71795 1.71795
342230 4 -1.71795 1.71795 -1.71795
342328 3 -1.71795 1.71795 1.71795
343674 2 1.71795 -1.71795 -1.71795
343772 1 1.71795 -1.71795 1.71795
344962 4 1.71795 1.71795 -1.71795
345059 3 0.0 0.0 0.0
345060 4 1.71795 1.71795 1.71795
