ITEM: TIMESTEP
0
ITEM: NUMBER OF ATOMS
9
ITEM: BOX BOUNDS pp pp pp
-24.0513 24.0513
-24.0513 24.0513
-24.0513 24.0513
ITEM: ATOMS id type x y z
686 1 -1.71795 -1.71795 -1.71795
784 4 -1.71795 -1.71795 1.71795
1974 4 -1.71795 1.71795 -1.71795
2072 3 -1.71795 1.71795 1.71795
3418 2 1.71795 -1.71795 -1.71795
3516 1 1.71795 -1.71795 1.71795
4706 4 1.71795 1.71795 -1.71795
4803 3 0.0 0.0 0.0
4804 4 1.71795 1.71795 1.71795
