ITEM: TIMESTEP
0
ITEM: NUMBER OF ATOMS
5488
ITEM: BOX BOUNDS pp pp pp
-2.4051300000000001e+01 2.4051300000000001e+01
-2.4051300000000001e+01 2.4051300000000001e+01
-2.4051300000000001e+01 2.4051300000000001e+01
ITEM: ATOMS id type x y z c_pot c_kin
1 3 -24.0513 -24.0513 -24.0513 -9.39973 0
2 2 -22.3334 -22.3334 -22.3334 -8.10505 0
3 2 -20.6154 -24.0513 -24.0513 -8.12451 0
4 3 -18.8974 -22.3334 -22.3334 -9.27488 0
5 4 -17.1795 -24.0513 -24.0513 -5.90345 0
6 1 -15.4616 -22.3334 -22.3334 -7.46279 0
7 2 -13.7436 -24.0513 -24.0513 -7.91949 0
8 1 -12.0257 -22.3334 -22.3334 -7.51819 0
9 2 -10.3077 -24.0513 -24.0513 -8.01317 0
10 3 -8.58975 -22.3334 -22.3334 -9.36317 0
11 3 -6.8718 -24.0513 -24.0513 -9.34537 0
12 3 -5.15385 -22.3334 -22.3334 -9.32927 0
13 2 -3.4359 -24.0513 -24.0513 -8.02745 0
14 4 -1.71795 -22.3334 -22.3334 -5.99248 0
15 3 -24.0513 -20.6154 -24.0513 -9.45981 0
16 3 -22.3334 -18.8974 -22.3334 -9.29319 0
17 4 -20.6154 -20.6154 -24.0513 -6.09862 0
18 3 -18.8974 -18.8974 -22.3334 -9.35907 0
19 2 -17.1795 -20.6154 -24.0513 -8.11699 0
20 1 -15.4616 -18.8974 -22.3334 -7.57238 0
21 4 -13.7436 -20.6154 -24.0513 -5.84558 0
22 4 -12.0257 -18.8974 -22.3334 -6.02817 0
23 3 -10.3077 -20.6154 -24.0513 -9.25362 0
24 3 -8.58975 -18.8974 -22.3334 -9.39529 0
25 1 -6.8718 -20.6154 -24.0513 -7.53754 0
26 1 -5.15385 -18.8974 -22.3334 -7.44688 0
27 3 -3.4359 -20.6154 -24.0513 -9.36695 0
28 2 -1.71795 -18.8974 -22.3334 -8.07083 0
29 2 -24.0513 -17.1795 -24.0513 -8.11609 0
30 1 -22.3334 -15.4616 -22.3334 -7.52069 0
31 1 -20.6154 -17.1795 -24.0513 -7.58253 0
32 3 -18.8974 -15.4616 -22.3334 -9.41243 0
33 3 -17.1795 -17.1795 -24.0513 -9.47652 0
34 2 -15.4616 -15.4616 -22.3334 -8.14036 0
35 3 -13.7436 -17.1795 -24.0513 -9.23727 0
36 4 -12.0257 -15.4616 -22.3334 -6.10414 0
37 3 -10.3077 -17.1795 -24.0513 -9.19639 0
38 3 -8.58975 -15.4616 -22.3334 -9.43999 0
39 1 -6.8718 -17.1795 -24.0513 -7.47041 0
40 4 -5.15385 -15.4616 -22.3334 -6.07874 0
41 2 -3.4359 -17.1795 -24.0513 -7.99517 0
42 4 -1.71795 -15.4616 -22.3334 -6.08573 0
43 2 -24.0513 -13.7436 -24.0513 -7.98354 0
45 3 -20.6154 -13.7436 -24.0513 -9.38518 0
47 3 -17.1795 -13.7436 -24.0513 -9.40991 0
49 2 -13.7436 -13.7436 -24.0513 -8.07607 0
51 1 -10.3077 -13.7436 -24.0513 -7.44294 0
53 1 -6.8718 -13.7436 -24.0513 -7.51745 0
55 2 -3.4359 -13.7436 -24.0513 -8.07264 0
44 4 -22.3334 -12.0257 -22.3334 -6.17433 0
57 2 -24.0513 -10.3077 -24.0513 -8.1292 0
46 1 -18.8974 -12.0257 -22.3334 -7.511 0
59 2 -20.6154 -10.3077 -24.0513 -8.15277 0
48 1 -15.4616 -12.0257 -22.3334 -7.57829 0
61 3 -17.1795 -10.3077 -24.0513 -9.41458 0
63 3 -13.7436 -10.3077 -24.0513 -9.39485 0
50 3 -12.0257 -12.0257 -22.3334 -9.45979 0
65 3 -10.3077 -10.3077 -24.0513 -9.41409 0
52 3 -8.58975 -12.0257 -22.3334 -9.32397 0
67 4 -6.8718 -10.3077 -24.0513 -6.05342 0
54 2 -5.15385 -12.0257 -22.3334 -8.02397 0
69 3 -3.4359 -10.3077 -24.0513 -9.45306 0
56 3 -1.71795 -12.0257 -22.3334 -9.33365 0
58 2 -22.3334 -8.58975 -22.3334 -8.02896 0
71 3 -24.0513 -6.8718 -24.0513 -9.45657 0
60 3 -18.8974 -8.58975 -22.3334 -9.22327 0
73 1 -20.6154 -6.8718 -24.0513 -7.58989 0
62 3 -15.4616 -8.58975 -22.3334 -9.38655 0
75 4 -17.1795 -6.8718 -24.0513 -5.99795 0
77 2 -13.7436 -6.8718 -24.0513 -8.05487 0
64 3 -12.0257 -8.58975 -22.3334 -9.45597 0
79 1 -10.3077 -6.8718 -24.0513 -7.51363 0
66 4 -8.58975 -8.58975 -22.3334 -6.04898 0
81 3 -6.8718 -6.8718 -24.0513 -9.30554 0
68 3 -5.15385 -8.58975 -22.3334 -9.26985 0
83 2 -3.4359 -6.8718 -24.0513 -8.08322 0
70 3 -1.71795 -8.58975 -22.3334 -9.25342 0
72 1 -22.3334 -5.15385 -22.3334 -7.35882 0
85 4 -24.0513 -3.4359 -24.0513 -5.95965 0
74 2 -18.8974 -5.15385 -22.3334 -7.94123 0
87 1 -20.6154 -3.4359 -24.0513 -7.49058 0
76 1 -15.4616 -5.15385 -22.3334 -7.43068 0
89 1 -17.1795 -3.4359 -24.0513 -7.38979 0
91 1 -13.7436 -3.4359 -24.0513 -7.37347 0
78 2 -12.0257 -5.15385 -22.3334 -8.12045 0
93 3 -10.3077 -3.4359 -24.0513 -9.25879 0
80 1 -8.58975 -5.15385 -22.3334 -7.54689 0
95 1 -6.8718 -3.4359 -24.0513 -7.37498 0
82 1 -5.15385 -5.15385 -22.3334 -7.53266 0
97 4 -3.4359 -3.4359 -24.0513 -5.97233 0
84 2 -1.71795 -5.15385 -22.3334 -7.95299 0
86 4 -22.3334 -1.71795 -22.3334 -5.90414 0
88 2 -18.8974 -1.71795 -22.3334 -8.02004 0
90 1 -15.4616 -1.71795 -22.3334 -7.44291 0
92 4 -12.0257 -1.71795 -22.3334 -5.9714 0
94 1 -8.58975 -1.71795 -22.3334 -7.44592 0
96 1 -5.15385 -1.71795 -22.3334 -7.43123 0
98 1 -1.71795 -1.71795 -22.3334 -7.42661 0
99 1 -24.0513 -24.0513 -20.6154 -7.59994 0
100 3 -22.3334 -22.3334 -18.8974 -9.3767 0
101 1 -20.6154 -24.0513 -20.6154 -7.69788 0
102 2 -18.8974 -22.3334 -18.8974 -8.04334 0
103 4 -17.1795 -24.0513 -20.6154 -6.06512 0
104 4 -15.4616 -22.3334 -18.8974 -6.07667 0
105 4 -13.7436 -24.0513 -20.6154 -5.95226 0
106 1 -12.0257 -22.3334 -18.8974 -7.5812 0
107 2 -10.3077 -24.0513 -20.6154 -8.10507 0
108 4 -8.58975 -22.3334 -18.8974 -5.97023 0
109 1 -6.8718 -24.0513 -20.6154 -7.45704 0
110 3 -5.15385 -22.3334 -18.8974 -9.21281 0
111 4 -3.4359 -24.0513 -20.6154 -6.04911 0
112 2 -1.71795 -22.3334 -18.8974 -7.9588 0
113 2 -24.0513 -20.6154 -20.6154 -8.10618 0
114 4 -22.3334 -18.8974 -18.8974 -6.07083 0
115 3 -20.6154 -20.6154 -20.6154 -9.45217 0
116 2 -18.8974 -18.8974 -18.8974 -8.08989 0
117 2 -17.1795 -20.6154 -20.6154 -8.07833 0
118 2 -15.4616 -18.8974 -18.8974 -8.12047 0
119 3 -13.7436 -20.6154 -20.6154 -9.25695 0
120 3 -12.0257 -18.8974 -18.8974 -9.32397 0
121 4 -10.3077 -20.6154 -20.6154 -5.93412 0
122 4 -8.58975 -18.8974 -18.8974 -5.95292 0
123 1 -6.8718 -20.6154 -20.6154 -7.46147 0
124 4 -5.15385 -18.8974 -18.8974 -5.96001 0
125 1 -3.4359 -20.6154 -20.6154 -7.53012 0
126 3 -1.71795 -18.8974 -18.8974 -9.26257 0
127 4 -24.0513 -17.1795 -20.6154 -6.00956 0
128 3 -22.3334 -15.4616 -18.8974 -9.27556 0
129 4 -20.6154 -17.1795 -20.6154 -6.04145 0
130 4 -18.8974 -15.4616 -18.8974 -6.02564 0
131 3 -17.1795 -17.1795 -20.6154 -9.39212 0
132 2 -15.4616 -15.4616 -18.8974 -8.11038 0
133 4 -13.7436 -17.1795 -20.6154 -6.05627 0
134 3 -12.0257 -15.4616 -18.8974 -9.39081 0
135 3 -10.3077 -17.1795 -20.6154 -9.30694 0
136 4 -8.58975 -15.4616 -18.8974 -6.10692 0
137 3 -6.8718 -17.1795 -20.6154 -9.26221 0
138 2 -5.15385 -15.4616 -18.8974 -8.18836 0
139 1 -3.4359 -17.1795 -20.6154 -7.39864 0
140 4 -1.71795 -15.4616 -18.8974 -6.0586 0
141 2 -24.0513 -13.7436 -20.6154 -8.0487 0
143 3 -20.6154 -13.7436 -20.6154 -9.35749 0
145 4 -17.1795 -13.7436 -20.6154 -6.04832 0
147 3 -13.7436 -13.7436 -20.6154 -9.40371 0
149 2 -10.3077 -13.7436 -20.6154 -8.09323 0
151 3 -6.8718 -13.7436 -20.6154 -9.31845 0
153 2 -3.4359 -13.7436 -20.6154 -8.00135 0
142 3 -22.3334 -12.0257 -18.8974 -9.3903 0
155 3 -24.0513 -10.3077 -20.6154 -9.40374 0
144 3 -18.8974 -12.0257 -18.8974 -9.34452 0
157 4 -20.6154 -10.3077 -20.6154 -6.09483 0
146 3 -15.4616 -12.0257 -18.8974 -9.39099 0
159 1 -17.1795 -10.3077 -20.6154 -7.54288 0
161 2 -13.7436 -10.3077 -20.6154 -8.11176 0
148 2 -12.0257 -12.0257 -18.8974 -8.16519 0
163 2 -10.3077 -10.3077 -20.6154 -8.02458 0
150 1 -8.58975 -12.0257 -18.8974 -7.58515 0
165 4 -6.8718 -10.3077 -20.6154 -6.01903 0
152 1 -5.15385 -12.0257 -18.8974 -7.45601 0
167 4 -3.4359 -10.3077 -20.6154 -6.12895 0
154 2 -1.71795 -12.0257 -18.8974 -7.97233 0
156 3 -22.3334 -8.58975 -18.8974 -9.24923 0
169 4 -24.0513 -6.8718 -20.6154 -6.05869 0
158 3 -18.8974 -8.58975 -18.8974 -9.23584 0
171 4 -20.6154 -6.8718 -20.6154 -6.11441 0
160 1 -15.4616 -8.58975 -18.8974 -7.4984 0
173 1 -17.1795 -6.8718 -20.6154 -7.60229 0
175 2 -13.7436 -6.8718 -20.6154 -8.10159 0
162 4 -12.0257 -8.58975 -18.8974 -6.20752 0
177 3 -10.3077 -6.8718 -20.6154 -9.28956 0
164 4 -8.58975 -8.58975 -18.8974 -6.13046 0
179 2 -6.8718 -6.8718 -20.6154 -8.04741 0
166 2 -5.15385 -8.58975 -18.8974 -7.94724 0
181 4 -3.4359 -6.8718 -20.6154 -6.13356 0
168 1 -1.71795 -8.58975 -18.8974 -7.33583 0
170 4 -22.3334 -5.15385 -18.8974 -5.88835 0
183 4 -24.0513 -3.4359 -20.6154 -5.89475 0
172 3 -18.8974 -5.15385 -18.8974 -9.24235 0
185 2 -20.6154 -3.4359 -20.6154 -8.07381 0
174 3 -15.4616 -5.15385 -18.8974 -9.30597 0
187 4 -17.1795 -3.4359 -20.6154 -6.13849 0
189 2 -13.7436 -3.4359 -20.6154 -8.09181 0
176 2 -12.0257 -5.15385 -18.8974 -8.04942 0
191 1 -10.3077 -3.4359 -20.6154 -7.53555 0
178 3 -8.58975 -5.15385 -18.8974 -9.41265 0
193 3 -6.8718 -3.4359 -20.6154 -9.38951 0
180 2 -5.15385 -5.15385 -18.8974 -8.11272 0
195 2 -3.4359 -3.4359 -20.6154 -8.07826 0
182 3 -1.71795 -5.15385 -18.8974 -9.27137 0
184 3 -22.3334 -1.71795 -18.8974 -9.26807 0
186 2 -18.8974 -1.71795 -18.8974 -8.02417 0
188 2 -15.4616 -1.71795 -18.8974 -8.08932 0
190 3 -12.0257 -1.71795 -18.8974 -9.27217 0
192 2 -8.58975 -1.71795 -18.8974 -7.97633 0
194 3 -5.15385 -1.71795 -18.8974 -9.3087 0
196 4 -1.71795 -1.71795 -18.8974 -6.01335 0
197 2 -24.0513 -24.0513 -17.1795 -8.12969 0
198 3 -22.3334 -22.3334 -15.4616 -9.30152 0
199 1 -20.6154 -24.0513 -17.1795 -7.58288 0
200 2 -18.8974 -22.3334 -15.4616 -8.03114 0
201 1 -17.1795 -24.0513 -17.1795 -7.59583 0
202 2 -15.4616 -22.3334 -15.4616 -8.10999 0
203 3 -13.7436 -24.0513 -17.1795 -9.34875 0
204 2 -12.0257 -22.3334 -15.4616 -8.13709 0
205 2 -10.3077 -24.0513 -17.1795 -8.01905 0
206 1 -8.58975 -22.3334 -15.4616 -7.42311 0
207 4 -6.8718 -24.0513 -17.1795 -5.89435 0
208 4 -5.15385 -22.3334 -15.4616 -6.00314 0
209 2 -3.4359 -24.0513 -17.1795 -8.09629 0
210 3 -1.71795 -22.3334 -15.4616 -9.33237 0
211 2 -24.0513 -20.6154 -17.1795 -8.07191 0
212 1 -22.3334 -18.8974 -15.4616 -7.53559 0
213 2 -20.6154 -20.6154 -17.1795 -8.12046 0
214 3 -18.8974 -18.8974 -15.4616 -9.34688 0
215 2 -17.1795 -20.6154 -17.1795 -8.0587 0
216 4 -15.4616 -18.8974 -15.4616 -6.06078 0
217 2 -13.7436 -20.6154 -17.1795 -8.05957 0
218 3 -12.0257 -18.8974 -15.4616 -9.33236 0
219 2 -10.3077 -20.6154 -17.1795 -8.06643 0
220 3 -8.58975 -18.8974 -15.4616 -9.29289 0
221 4 -6.8718 -20.6154 -17.1795 -5.89242 0
222 4 -5.15385 -18.8974 -15.4616 -6.01907 0
223 2 -3.4359 -20.6154 -17.1795 -8.05994 0
224 2 -1.71795 -18.8974 -15.4616 -8.09411 0
225 2 -24.0513 -17.1795 -17.1795 -8.06223 0
226 1 -22.3334 -15.4616 -15.4616 -7.58189 0
227 4 -20.6154 -17.1795 -17.1795 -5.95237 0
228 4 -18.8974 -15.4616 -15.4616 -6.16368 0
229 3 -17.1795 -17.1795 -17.1795 -9.27367 0
230 1 -15.4616 -15.4616 -15.4616 -7.53822 0
231 1 -13.7436 -17.1795 -17.1795 -7.53699 0
232 1 -12.0257 -15.4616 -15.4616 -7.48179 0
233 1 -10.3077 -17.1795 -17.1795 -7.51868 0
234 3 -8.58975 -15.4616 -15.4616 -9.41826 0
235 1 -6.8718 -17.1795 -17.1795 -7.44431 0
236 3 -5.15385 -15.4616 -15.4616 -9.42003 0
237 3 -3.4359 -17.1795 -17.1795 -9.34852 0
238 3 -1.71795 -15.4616 -15.4616 -9.36072 0
239 4 -24.0513 -13.7436 -17.1795 -6.00127 0
241 3 -20.6154 -13.7436 -17.1795 -9.25636 0
243 3 -17.1795 -13.7436 -17.1795 -9.31216 0
245 3 -13.7436 -13.7436 -17.1795 -9.4412 0
247 2 -10.3077 -13.7436 -17.1795 -8.08356 0
249 3 -6.8718 -13.7436 -17.1795 -9.34579 0
251 3 -3.4359 -13.7436 -17.1795 -9.32396 0
240 4 -22.3334 -12.0257 -15.4616 -6.07725 0
253 2 -24.0513 -10.3077 -17.1795 -8.05381 0
242 4 -18.8974 -12.0257 -15.4616 -6.07175 0
255 2 -20.6154 -10.3077 -17.1795 -8.12688 0
244 3 -15.4616 -12.0257 -15.4616 -9.39083 0
257 1 -17.1795 -10.3077 -17.1795 -7.58404 0
259 2 -13.7436 -10.3077 -17.1795 -8.06585 0
246 2 -12.0257 -12.0257 -15.4616 -8.14957 0
261 2 -10.3077 -10.3077 -17.1795 -7.97161 0
248 2 -8.58975 -12.0257 -15.4616 -8.10205 0
263 4 -6.8718 -10.3077 -17.1795 -6.03067 0
250 1 -5.15385 -12.0257 -15.4616 -7.5295 0
265 4 -3.4359 -10.3077 -17.1795 -5.97415 0
252 4 -1.71795 -12.0257 -15.4616 -5.95181 0
254 1 -22.3334 -8.58975 -15.4616 -7.48973 0
267 1 -24.0513 -6.8718 -17.1795 -7.52555 0
256 3 -18.8974 -8.58975 -15.4616 -9.31274 0
269 1 -20.6154 -6.8718 -17.1795 -7.58066 0
258 2 -15.4616 -8.58975 -15.4616 -8.06674 0
271 2 -17.1795 -6.8718 -17.1795 -8.18465 0
273 1 -13.7436 -6.8718 -17.1795 -7.4116 0
260 4 -12.0257 -8.58975 -15.4616 -6.14093 0
275 2 -10.3077 -6.8718 -17.1795 -8.00531 0
262 2 -8.58975 -8.58975 -15.4616 -8.09645 0
277 3 -6.8718 -6.8718 -17.1795 -9.40494 0
264 3 -5.15385 -8.58975 -15.4616 -9.32474 0
279 2 -3.4359 -6.8718 -17.1795 -8.04872 0
266 4 -1.71795 -8.58975 -15.4616 -6.02579 0
268 3 -22.3334 -5.15385 -15.4616 -9.3887 0
281 3 -24.0513 -3.4359 -17.1795 -9.35575 0
270 3 -18.8974 -5.15385 -15.4616 -9.35936 0
283 4 -20.6154 -3.4359 -17.1795 -6.14768 0
272 4 -15.4616 -5.15385 -15.4616 -5.96352 0
285 3 -17.1795 -3.4359 -17.1795 -9.41637 0
287 4 -13.7436 -3.4359 -17.1795 -6.06884 0
274 4 -12.0257 -5.15385 -15.4616 -6.03075 0
289 1 -10.3077 -3.4359 -17.1795 -7.64548 0
276 3 -8.58975 -5.15385 -15.4616 -9.42073 0
291 1 -6.8718 -3.4359 -17.1795 -7.64792 0
278 1 -5.15385 -5.15385 -15.4616 -7.55641 0
293 2 -3.4359 -3.4359 -17.1795 -8.0551 0
280 4 -1.71795 -5.15385 -15.4616 -6.08449 0
282 3 -22.3334 -1.71795 -15.4616 -9.26833 0
284 2 -18.8974 -1.71795 -15.4616 -8.0889 0
286 1 -15.4616 -1.71795 -15.4616 -7.48172 0
288 2 -12.0257 -1.71795 -15.4616 -8.03923 0
290 3 -8.58975 -1.71795 -15.4616 -9.27809 0
292 2 -5.15385 -1.71795 -15.4616 -7.96014 0
294 1 -1.71795 -1.71795 -15.4616 -7.48401 0
295 4 -24.0513 -24.0513 -13.7436 -6.16321 0
297 3 -20.6154 -24.0513 -13.7436 -9.38119 0
299 1 -17.1795 -24.0513 -13.7436 -7.59651 0
301 3 -13.7436 -24.0513 -13.7436 -9.39283 0
303 4 -10.3077 -24.0513 -13.7436 -5.90604 0
305 3 -6.8718 -24.0513 -13.7436 -9.21692 0
307 4 -3.4359 -24.0513 -13.7436 -5.98393 0
309 1 -24.0513 -20.6154 -13.7436 -7.54569 0
311 4 -20.6154 -20.6154 -13.7436 -6.00255 0
313 1 -17.1795 -20.6154 -13.7436 -7.46386 0
315 3 -13.7436 -20.6154 -13.7436 -9.28373 0
317 1 -10.3077 -20.6154 -13.7436 -7.47162 0
319 1 -6.8718 -20.6154 -13.7436 -7.40742 0
321 3 -3.4359 -20.6154 -13.7436 -9.29771 0
323 2 -24.0513 -17.1795 -13.7436 -8.03613 0
325 2 -20.6154 -17.1795 -13.7436 -7.99971 0
327 3 -17.1795 -17.1795 -13.7436 -9.21597 0
329 4 -13.7436 -17.1795 -13.7436 -5.84595 0
331 2 -10.3077 -17.1795 -13.7436 -8.12815 0
333 2 -6.8718 -17.1795 -13.7436 -8.08827 0
335 1 -3.4359 -17.1795 -13.7436 -7.50258 0
337 3 -24.0513 -13.7436 -13.7436 -9.25499 0
339 2 -20.6154 -13.7436 -13.7436 -7.92337 0
341 2 -17.1795 -13.7436 -13.7436 -7.93996 0
343 1 -13.7436 -13.7436 -13.7436 -7.3659 0
345 3 -10.3077 -13.7436 -13.7436 -9.37541 0
347 2 -6.8718 -13.7436 -13.7436 -8.05425 0
349 1 -3.4359 -13.7436 -13.7436 -7.45007 0
351 1 -24.0513 -10.3077 -13.7436 -7.42668 0
353 1 -20.6154 -10.3077 -13.7436 -7.35907 0
355 4 -17.1795 -10.3077 -13.7436 -5.9522 0
357 3 -13.7436 -10.3077 -13.7436 -9.32524 0
359 1 -10.3077 -10.3077 -13.7436 -7.5895 0
361 2 -6.8718 -10.3077 -13.7436 -8.07806 0
363 2 -3.4359 -10.3077 -13.7436 -7.99438 0
365 3 -24.0513 -6.8718 -13.7436 -9.44685 0
367 3 -20.6154 -6.8718 -13.7436 -9.50351 0
369 1 -17.1795 -6.8718 -13.7436 -7.53123 0
371 2 -13.7436 -6.8718 -13.7436 -7.99918 0
373 3 -10.3077 -6.8718 -13.7436 -9.32139 0
375 2 -6.8718 -6.8718 -13.7436 -8.11852 0
377 1 -3.4359 -6.8718 -13.7436 -7.40315 0
379 1 -24.0513 -3.4359 -13.7436 -7.45792 0
381 3 -20.6154 -3.4359 -13.7436 -9.45647 0
383 1 -17.1795 -3.4359 -13.7436 -7.46263 0
385 4 -13.7436 -3.4359 -13.7436 -5.9539 0
387 2 -10.3077 -3.4359 -13.7436 -8.09908 0
389 2 -6.8718 -3.4359 -13.7436 -8.11366 0
391 1 -3.4359 -3.4359 -13.7436 -7.42436 0
296 3 -22.3334 -22.3334 -12.0257 -9.25345 0
393 3 -24.0513 -24.0513 -10.3077 -9.43127 0
298 4 -18.8974 -22.3334 -12.0257 -5.90262 0
395 4 -20.6154 -24.0513 -10.3077 -5.95036 0
300 2 -15.4616 -22.3334 -12.0257 -8.1047 0
397 1 -17.1795 -24.0513 -10.3077 -7.46142 0
399 3 -13.7436 -24.0513 -10.3077 -9.33556 0
302 4 -12.0257 -22.3334 -12.0257 -6.05009 0
401 2 -10.3077 -24.0513 -10.3077 -8.01872 0
304 1 -8.58975 -22.3334 -12.0257 -7.42455 0
403 4 -6.8718 -24.0513 -10.3077 -5.95108 0
306 3 -5.15385 -22.3334 -12.0257 -9.3645 0
405 3 -3.4359 -24.0513 -10.3077 -9.26666 0
308 1 -1.71795 -22.3334 -12.0257 -7.57109 0
310 1 -22.3334 -18.8974 -12.0257 -7.44038 0
407 1 -24.0513 -20.6154 -10.3077 -7.53591 0
312 4 -18.8974 -18.8974 -12.0257 -6.0615 0
409 1 -20.6154 -20.6154 -10.3077 -7.36026 0
314 1 -15.4616 -18.8974 -12.0257 -7.48551 0
411 3 -17.1795 -20.6154 -10.3077 -9.14375 0
413 4 -13.7436 -20.6154 -10.3077 -5.94548 0
316 4 -12.0257 -18.8974 -12.0257 -5.99488 0
415 3 -10.3077 -20.6154 -10.3077 -9.36915 0
318 3 -8.58975 -18.8974 -12.0257 -9.37816 0
417 1 -6.8718 -20.6154 -10.3077 -7.54037 0
320 4 -5.15385 -18.8974 -12.0257 -6.02292 0
419 2 -3.4359 -20.6154 -10.3077 -8.03584 0
322 2 -1.71795 -18.8974 -12.0257 -8.17181 0
324 1 -22.3334 -15.4616 -12.0257 -7.53173 0
421 1 -24.0513 -17.1795 -10.3077 -7.53983 0
326 3 -18.8974 -15.4616 -12.0257 -9.44947 0
423 3 -20.6154 -17.1795 -10.3077 -9.27293 0
328 4 -15.4616 -15.4616 -12.0257 -6.0649 0
425 2 -17.1795 -17.1795 -10.3077 -7.88515 0
427 1 -13.7436 -17.1795 -10.3077 -7.28486 0
330 1 -12.0257 -15.4616 -12.0257 -7.54728 0
429 3 -10.3077 -17.1795 -10.3077 -9.32028 0
332 2 -8.58975 -15.4616 -12.0257 -8.14965 0
431 1 -6.8718 -17.1795 -10.3077 -7.51515 0
334 4 -5.15385 -15.4616 -12.0257 -6.08011 0
433 3 -3.4359 -17.1795 -10.3077 -9.28749 0
336 3 -1.71795 -15.4616 -12.0257 -9.43802 0
435 4 -24.0513 -13.7436 -10.3077 -6.08257 0
437 4 -20.6154 -13.7436 -10.3077 -6.01699 0
439 3 -17.1795 -13.7436 -10.3077 -9.1785 0
441 3 -13.7436 -13.7436 -10.3077 -9.11944 0
443 2 -10.3077 -13.7436 -10.3077 -7.98792 0
445 2 -6.8718 -13.7436 -10.3077 -8.00043 0
447 3 -3.4359 -13.7436 -10.3077 -9.24448 0
338 1 -22.3334 -12.0257 -12.0257 -7.42904 0
449 1 -24.0513 -10.3077 -10.3077 -7.55407 0
340 4 -18.8974 -12.0257 -12.0257 -6.01676 0
451 3 -20.6154 -10.3077 -10.3077 -9.4031 0
342 4 -15.4616 -12.0257 -12.0257 -6.05216 0
453 1 -17.1795 -10.3077 -10.3077 -7.41427 0
455 3 -13.7436 -10.3077 -10.3077 -9.32499 0
344 1 -12.0257 -12.0257 -12.0257 -7.54817 0
457 1 -10.3077 -10.3077 -10.3077 -7.52413 0
346 2 -8.58975 -12.0257 -12.0257 -8.12098 0
459 3 -6.8718 -10.3077 -10.3077 -9.29338 0
348 4 -5.15385 -12.0257 -12.0257 -6.18388 0
461 3 -3.4359 -10.3077 -10.3077 -9.2447 0
350 3 -1.71795 -12.0257 -12.0257 -9.4638 0
352 3 -22.3334 -8.58975 -12.0257 -9.37584 0
463 4 -24.0513 -6.8718 -10.3077 -6.04856 0
354 1 -18.8974 -8.58975 -12.0257 -7.47372 0
465 2 -20.6154 -6.8718 -10.3077 -8.10885 0
356 1 -15.4616 -8.58975 -12.0257 -7.47834 0
467 3 -17.1795 -6.8718 -10.3077 -9.39976 0
469 1 -13.7436 -6.8718 -10.3077 -7.53124 0
358 3 -12.0257 -8.58975 -12.0257 -9.4267 0
471 2 -10.3077 -6.8718 -10.3077 -8.06418 0
360 2 -8.58975 -8.58975 -12.0257 -8.13209 0
473 3 -6.8718 -6.8718 -10.3077 -9.29081 0
362 2 -5.15385 -8.58975 -12.0257 -8.18543 0
475 3 -3.4359 -6.8718 -10.3077 -9.33743 0
364 4 -1.71795 -8.58975 -12.0257 -6.12453 0
366 3 -22.3334 -5.15385 -12.0257 -9.44838 0
477 3 -24.0513 -3.4359 -10.3077 -9.25344 0
368 3 -18.8974 -5.15385 -12.0257 -9.48476 0
479 3 -20.6154 -3.4359 -10.3077 -9.24998 0
370 3 -15.4616 -5.15385 -12.0257 -9.33931 0
481 3 -17.1795 -3.4359 -10.3077 -9.32498 0
483 1 -13.7436 -3.4359 -10.3077 -7.52119 0
372 4 -12.0257 -5.15385 -12.0257 -6.06646 0
485 3 -10.3077 -3.4359 -10.3077 -9.31742 0
374 3 -8.58975 -5.15385 -12.0257 -9.46863 0
487 1 -6.8718 -3.4359 -10.3077 -7.46707 0
376 4 -5.15385 -5.15385 -12.0257 -6.0739 0
489 2 -3.4359 -3.4359 -10.3077 -8.07042 0
378 3 -1.71795 -5.15385 -12.0257 -9.38874 0
380 4 -22.3334 -1.71795 -12.0257 -6.00043 0
382 1 -18.8974 -1.71795 -12.0257 -7.59668 0
384 4 -15.4616 -1.71795 -12.0257 -5.99382 0
386 3 -12.0257 -1.71795 -12.0257 -9.39759 0
388 1 -8.58975 -1.71795 -12.0257 -7.58275 0
390 2 -5.15385 -1.71795 -12.0257 -8.05488 0
392 4 -1.71795 -1.71795 -12.0257 -6.01332 0
394 1 -22.3334 -22.3334 -8.58975 -7.47293 0
491 4 -24.0513 -24.0513 -6.8718 -5.95432 0
396 1 -18.8974 -22.3334 -8.58975 -7.49403 0
493 2 -20.6154 -24.0513 -6.8718 -7.90194 0
398 4 -15.4616 -22.3334 -8.58975 -5.99639 0
495 4 -17.1795 -24.0513 -6.8718 -5.94357 0
497 4 -13.7436 -24.0513 -6.8718 -5.95598 0
400 2 -12.0257 -22.3334 -8.58975 -8.11977 0
499 2 -10.3077 -24.0513 -6.8718 -8.02609 0
402 2 -8.58975 -22.3334 -8.58975 -8.11727 0
501 3 -6.8718 -24.0513 -6.8718 -9.33074 0
404 1 -5.15385 -22.3334 -8.58975 -7.47161 0
503 3 -3.4359 -24.0513 -6.8718 -9.22522 0
406 1 -1.71795 -22.3334 -8.58975 -7.593 0
408 3 -22.3334 -18.8974 -8.58975 -9.4096 0
505 3 -24.0513 -20.6154 -6.8718 -9.32299 0
410 4 -18.8974 -18.8974 -8.58975 -6.18626 0
507 2 -20.6154 -20.6154 -6.8718 -7.91273 0
412 4 -15.4616 -18.8974 -8.58975 -6.11284 0
509 2 -17.1795 -20.6154 -6.8718 -7.87518 0
511 3 -13.7436 -20.6154 -6.8718 -9.27372 0
414 3 -12.0257 -18.8974 -8.58975 -9.43267 0
513 3 -10.3077 -20.6154 -6.8718 -9.41989 0
416 3 -8.58975 -18.8974 -8.58975 -9.35979 0
515 1 -6.8718 -20.6154 -6.8718 -7.5471 0
418 2 -5.15385 -18.8974 -8.58975 -8.00549 0
517 4 -3.4359 -20.6154 -6.8718 -6.0376 0
420 1 -1.71795 -18.8974 -8.58975 -7.48478 0
422 2 -22.3334 -15.4616 -8.58975 -8.0605 0
519 2 -24.0513 -17.1795 -6.8718 -8.05514 0
424 4 -18.8974 -15.4616 -8.58975 -6.10855 0
521 2 -20.6154 -17.1795 -6.8718 -8.01787 0
426 4 -15.4616 -15.4616 -8.58975 -6.06397 0
523 3 -17.1795 -17.1795 -6.8718 -9.14493 0
525 3 -13.7436 -17.1795 -6.8718 -9.19333 0
428 4 -12.0257 -15.4616 -8.58975 -6.05926 0
527 1 -10.3077 -17.1795 -6.8718 -7.397 0
430 4 -8.58975 -15.4616 -8.58975 -6.06645 0
529 1 -6.8718 -17.1795 -6.8718 -7.49202 0
432 2 -5.15385 -15.4616 -8.58975 -8.0953 0
531 4 -3.4359 -17.1795 -6.8718 -6.024 0
434 4 -1.71795 -15.4616 -8.58975 -6.00064 0
533 2 -24.0513 -13.7436 -6.8718 -8.066 0
535 3 -20.6154 -13.7436 -6.8718 -9.36892 0
537 1 -17.1795 -13.7436 -6.8718 -7.52386 0
539 1 -13.7436 -13.7436 -6.8718 -7.3982 0
541 3 -10.3077 -13.7436 -6.8718 -9.25321 0
543 3 -6.8718 -13.7436 -6.8718 -9.36564 0
545 1 -3.4359 -13.7436 -6.8718 -7.47859 0
436 2 -22.3334 -12.0257 -8.58975 -8.03577 0
547 4 -24.0513 -10.3077 -6.8718 -6.01816 0
438 2 -18.8974 -12.0257 -8.58975 -8.12334 0
549 3 -20.6154 -10.3077 -6.8718 -9.35647 0
440 1 -15.4616 -12.0257 -8.58975 -7.55398 0
551 2 -17.1795 -10.3077 -6.8718 -8.13604 0
553 2 -13.7436 -10.3077 -6.8718 -8.06761 0
442 4 -12.0257 -12.0257 -8.58975 -6.06116 0
555 4 -10.3077 -10.3077 -6.8718 -6.05682 0
444 3 -8.58975 -12.0257 -8.58975 -9.41883 0
557 2 -6.8718 -10.3077 -6.8718 -8.10811 0
446 1 -5.15385 -12.0257 -8.58975 -7.58533 0
559 4 -3.4359 -10.3077 -6.8718 -6.02398 0
448 4 -1.71795 -12.0257 -8.58975 -6.00406 0
450 3 -22.3334 -8.58975 -8.58975 -9.30006 0
561 4 -24.0513 -6.8718 -6.8718 -5.91553 0
452 3 -18.8974 -8.58975 -8.58975 -9.44314 0
563 2 -20.6154 -6.8718 -6.8718 -8.02297 0
454 3 -15.4616 -8.58975 -8.58975 -9.35792 0
565 1 -17.1795 -6.8718 -6.8718 -7.52431 0
567 4 -13.7436 -6.8718 -6.8718 -6.06562 0
456 3 -12.0257 -8.58975 -8.58975 -9.301 0
569 2 -10.3077 -6.8718 -6.8718 -8.01447 0
458 4 -8.58975 -8.58975 -8.58975 -6.06958 0
571 4 -6.8718 -6.8718 -6.8718 -6.05778 0
460 1 -5.15385 -8.58975 -8.58975 -7.57261 0
573 3 -3.4359 -6.8718 -6.8718 -9.37164 0
462 2 -1.71795 -8.58975 -8.58975 -8.14961 0
464 4 -22.3334 -5.15385 -8.58975 -6.05581 0
575 3 -24.0513 -3.4359 -6.8718 -9.27001 0
466 4 -18.8974 -5.15385 -8.58975 -6.06061 0
577 1 -20.6154 -3.4359 -6.8718 -7.37041 0
468 1 -15.4616 -5.15385 -8.58975 -7.36107 0
579 1 -17.1795 -3.4359 -6.8718 -7.41953 0
581 4 -13.7436 -3.4359 -6.8718 -6.0119 0
470 2 -12.0257 -5.15385 -8.58975 -8.03805 0
583 2 -10.3077 -3.4359 -6.8718 -8.00745 0
472 4 -8.58975 -5.15385 -8.58975 -6.06536 0
585 4 -6.8718 -3.4359 -6.8718 -6.00004 0
474 3 -5.15385 -5.15385 -8.58975 -9.36562 0
587 2 -3.4359 -3.4359 -6.8718 -8.06616 0
476 2 -1.71795 -5.15385 -8.58975 -8.10736 0
478 1 -22.3334 -1.71795 -8.58975 -7.5538 0
480 1 -18.8974 -1.71795 -8.58975 -7.54669 0
482 3 -15.4616 -1.71795 -8.58975 -9.41799 0
484 2 -12.0257 -1.71795 -8.58975 -8.14745 0
486 1 -8.58975 -1.71795 -8.58975 -7.54026 0
488 3 -5.15385 -1.71795 -8.58975 -9.33075 0
490 4 -1.71795 -1.71795 -8.58975 -5.96901 0
492 4 -22.3334 -22.3334 -5.15385 -6.18322 0
589 3 -24.0513 -24.0513 -3.4359 -9.20633 0
494 4 -18.8974 -22.3334 -5.15385 -6.17617 0
591 3 -20.6154 -24.0513 -3.4359 -9.22142 0
496 3 -15.4616 -22.3334 -5.15385 -9.35458 0
593 3 -17.1795 -24.0513 -3.4359 -9.36915 0
595 1 -13.7436 -24.0513 -3.4359 -7.50319 0
498 1 -12.0257 -22.3334 -5.15385 -7.53912 0
597 2 -10.3077 -24.0513 -3.4359 -7.94786 0
500 1 -8.58975 -22.3334 -5.15385 -7.64823 0
599 3 -6.8718 -24.0513 -3.4359 -9.16532 0
502 3 -5.15385 -22.3334 -5.15385 -9.38273 0
601 2 -3.4359 -24.0513 -3.4359 -8.00115 0
504 2 -1.71795 -22.3334 -5.15385 -8.06531 0
506 1 -22.3334 -18.8974 -5.15385 -7.66087 0
603 2 -24.0513 -20.6154 -3.4359 -8.0168 0
508 4 -18.8974 -18.8974 -5.15385 -6.14006 0
605 2 -20.6154 -20.6154 -3.4359 -7.9706 0
510 4 -15.4616 -18.8974 -5.15385 -6.0541 0
607 3 -17.1795 -20.6154 -3.4359 -9.31133 0
609 1 -13.7436 -20.6154 -3.4359 -7.47682 0
512 1 -12.0257 -18.8974 -5.15385 -7.48955 0
611 3 -10.3077 -20.6154 -3.4359 -9.26031 0
514 3 -8.58975 -18.8974 -5.15385 -9.39639 0
613 2 -6.8718 -20.6154 -3.4359 -8.00551 0
516 1 -5.15385 -18.8974 -5.15385 -7.4146 0
615 4 -3.4359 -20.6154 -3.4359 -6.13075 0
518 2 -1.71795 -18.8974 -5.15385 -8.04564 0
520 2 -22.3334 -15.4616 -5.15385 -8.12124 0
617 2 -24.0513 -17.1795 -3.4359 -8.04912 0
522 3 -18.8974 -15.4616 -5.15385 -9.31907 0
619 1 -20.6154 -17.1795 -3.4359 -7.49189 0
524 2 -15.4616 -15.4616 -5.15385 -8.06931 0
621 1 -17.1795 -17.1795 -3.4359 -7.47166 0
623 1 -13.7436 -17.1795 -3.4359 -7.37362 0
526 4 -12.0257 -15.4616 -5.15385 -5.95349 0
625 1 -10.3077 -17.1795 -3.4359 -7.3744 0
528 1 -8.58975 -15.4616 -5.15385 -7.48424 0
627 2 -6.8718 -17.1795 -3.4359 -8.05313 0
530 1 -5.15385 -15.4616 -5.15385 -7.48629 0
629 3 -3.4359 -17.1795 -3.4359 -9.4025 0
532 3 -1.71795 -15.4616 -5.15385 -9.31613 0
631 2 -24.0513 -13.7436 -3.4359 -8.01234 0
633 1 -20.6154 -13.7436 -3.4359 -7.58987 0
635 4 -17.1795 -13.7436 -3.4359 -6.1538 0
637 3 -13.7436 -13.7436 -3.4359 -9.39313 0
639 4 -10.3077 -13.7436 -3.4359 -6.04492 0
641 2 -6.8718 -13.7436 -3.4359 -8.16715 0
643 1 -3.4359 -13.7436 -3.4359 -7.60116 0
534 4 -22.3334 -12.0257 -5.15385 -6.012 0
645 4 -24.0513 -10.3077 -3.4359 -6.09044 0
536 3 -18.8974 -12.0257 -5.15385 -9.33381 0
647 4 -20.6154 -10.3077 -3.4359 -6.05341 0
538 2 -15.4616 -12.0257 -5.15385 -8.0367 0
649 3 -17.1795 -10.3077 -3.4359 -9.4081 0
651 4 -13.7436 -10.3077 -3.4359 -6.06132 0
540 2 -12.0257 -12.0257 -5.15385 -8.01967 0
653 2 -10.3077 -10.3077 -3.4359 -8.12644 0
542 3 -8.58975 -12.0257 -5.15385 -9.30939 0
655 4 -6.8718 -10.3077 -3.4359 -6.17289 0
544 3 -5.15385 -12.0257 -5.15385 -9.25286 0
657 4 -3.4359 -10.3077 -3.4359 -6.11476 0
546 2 -1.71795 -12.0257 -5.15385 -7.93601 0
548 1 -22.3334 -8.58975 -5.15385 -7.41134 0
659 1 -24.0513 -6.8718 -3.4359 -7.49058 0
550 4 -18.8974 -8.58975 -5.15385 -6.12183 0
661 2 -20.6154 -6.8718 -3.4359 -8.04374 0
552 2 -15.4616 -8.58975 -5.15385 -8.06129 0
663 2 -17.1795 -6.8718 -3.4359 -8.12396 0
665 3 -13.7436 -6.8718 -3.4359 -9.29744 0
554 4 -12.0257 -8.58975 -5.15385 -6.06767 0
667 3 -10.3077 -6.8718 -3.4359 -9.30407 0
556 2 -8.58975 -8.58975 -5.15385 -7.99581 0
669 1 -6.8718 -6.8718 -3.4359 -7.60537 0
558 2 -5.15385 -8.58975 -5.15385 -7.95312 0
671 1 -3.4359 -6.8718 -3.4359 -7.48264 0
560 4 -1.71795 -8.58975 -5.15385 -5.91518 0
562 1 -22.3334 -5.15385 -5.15385 -7.43333 0
673 1 -24.0513 -3.4359 -3.4359 -7.55331 0
564 3 -18.8974 -5.15385 -5.15385 -9.27001 0
675 4 -20.6154 -3.4359 -3.4359 -6.03187 0
566 3 -15.4616 -5.15385 -5.15385 -9.27718 0
677 4 -17.1795 -3.4359 -3.4359 -5.9995 0
679 3 -13.7436 -3.4359 -3.4359 -9.29408 0
568 1 -12.0257 -5.15385 -5.15385 -7.57378 0
681 3 -10.3077 -3.4359 -3.4359 -9.26824 0
570 3 -8.58975 -5.15385 -5.15385 -9.35687 0
683 2 -6.8718 -3.4359 -3.4359 -8.07807 0
572 3 -5.15385 -5.15385 -5.15385 -9.28238 0
685 1 -3.4359 -3.4359 -3.4359 -7.39161 0
574 1 -1.71795 -5.15385 -5.15385 -7.49865 0
576 2 -22.3334 -1.71795 -5.15385 -8.0639 0
578 1 -18.8974 -1.71795 -5.15385 -7.41842 0
580 4 -15.4616 -1.71795 -5.15385 -5.98309 0
582 4 -12.0257 -1.71795 -5.15385 -6.04789 0
584 1 -8.58975 -1.71795 -5.15385 -7.5371 0
586 1 -5.15385 -1.71795 -5.15385 -7.41638 0
588 4 -1.71795 -1.71795 -5.15385 -5.96645 0
590 1 -22.3334 -22.3334 -1.71795 -7.59983 0
592 2 -18.8974 -22.3334 -1.71795 -8.15555 0
594 3 -15.4616 -22.3334 -1.71795 -9.35874 0
596 2 -12.0257 -22.3334 -1.71795 -8.05251 0
598 4 -8.58975 -22.3334 -1.71795 -6.12326 0
600 4 -5.15385 -22.3334 -1.71795 -6.00963 0
602 2 -1.71795 -22.3334 -1.71795 -7.98253 0
604 3 -22.3334 -18.8974 -1.71795 -9.34618 0
606 1 -18.8974 -18.8974 -1.71795 -7.48273 0
608 3 -15.4616 -18.8974 -1.71795 -9.37519 0
610 1 -12.0257 -18.8974 -1.71795 -7.39041 0
612 4 -8.58975 -18.8974 -1.71795 -6.0119 0
614 2 -5.15385 -18.8974 -1.71795 -8.03724 0
616 3 -1.71795 -18.8974 -1.71795 -9.30908 0
618 1 -22.3334 -15.4616 -1.71795 -7.44155 0
620 3 -18.8974 -15.4616 -1.71795 -9.24729 0
622 1 -15.4616 -15.4616 -1.71795 -7.48623 0
624 1 -12.0257 -15.4616 -1.71795 -7.43551 0
626 3 -8.58975 -15.4616 -1.71795 -9.29445 0
628 1 -5.15385 -15.4616 -1.71795 -7.41603 0
630 2 -1.71795 -15.4616 -1.71795 -8.02294 0
632 2 -22.3334 -12.0257 -1.71795 -8.02655 0
634 3 -18.8974 -12.0257 -1.71795 -9.28541 0
636 3 -15.4616 -12.0257 -1.71795 -9.34257 0
638 3 -12.0257 -12.0257 -1.71795 -9.38246 0
640 3 -8.58975 -12.0257 -1.71795 -9.34999 0
642 3 -5.15385 -12.0257 -1.71795 -9.20695 0
644 3 -1.71795 -12.0257 -1.71795 -9.18917 0
646 2 -22.3334 -8.58975 -1.71795 -8.04765 0
648 3 -18.8974 -8.58975 -1.71795 -9.384 0
650 4 -15.4616 -8.58975 -1.71795 -5.99578 0
652 1 -12.0257 -8.58975 -1.71795 -7.51437 0
654 2 -8.58975 -8.58975 -1.71795 -8.09396 0
656 1 -5.15385 -8.58975 -1.71795 -7.40165 0
658 3 -1.71795 -8.58975 -1.71795 -9.32848 0
660 4 -22.3334 -5.15385 -1.71795 -6.02122 0
662 2 -18.8974 -5.15385 -1.71795 -8.04764 0
664 3 -15.4616 -5.15385 -1.71795 -9.28048 0
666 1 -12.0257 -5.15385 -1.71795 -7.50414 0
668 1 -8.58975 -5.15385 -1.71795 -7.52443 0
670 3 -5.15385 -5.15385 -1.71795 -9.30113 0
672 1 -1.71795 -5.15385 -1.71795 -7.48282 0
674 2 -22.3334 -1.71795 -1.71795 -7.97783 0
676 1 -18.8974 -1.71795 -1.71795 -7.41647 0
678 4 -15.4616 -1.71795 -1.71795 -5.93801 0
680 3 -12.0257 -1.71795 -1.71795 -9.36756 0
682 4 -8.58975 -1.71795 -1.71795 -6.094 0
684 1 -5.15385 -1.71795 -1.71795 -7.40524 0
686 1 -1.71795 -1.71795 -1.71795 -7.47179 0
687 3 -24.0513 -24.0513 0 -9.33128 0