ITEM: TIMESTEP
0
ITEM: NUMBER OF ATOMS
5482
ITEM: BOX BOUNDS pp pp pp
-14.43078 14.43078
-24.0513 24.0513
-24.0513 24.0513
ITEM: ATOMS id type x y z
1 3 -14.43078 -24.0513 -24.0513
2 2 -13.40004 -22.3334 -22.3334
3 2 -12.36924 -24.0513 -24.0513
4 3 -11.33844 -22.3334 -22.3334
5 4 -10.3077 -24.0513 -24.0513
6 1 -9.27696 -22.3334 -22.3334
7 2 -8.24616 -24.0513 -24.0513
8 1 -7.21542 -22.3334 -22.3334
9 2 -6.18462 -24.0513 -24.0513
10 3 -5.15385 -22.3334 -22.3334
11 3 -4.12308 -24.0513 -24.0513
12 3 -3.09231 -22.3334 -22.3334
13 2 -2.06154 -24.0513 -24.0513
14 4 -1.03077 -22.3334 -22.3334
15 3 -14.43078 -20.6154 -24.0513
16 3 -13.40004 -18.8974 -22.3334
17 4 -12.36924 -20.6154 -24.0513
18 3 -11.33844 -18.8974 -22.3334
19 2 -10.3077 -20.6154 -24.0513
20 1 -9.27696 -18.8974 -22.3334
21 4 -8.24616 -20.6154 -24.0513
22 4 -7.21542 -18.8974 -22.3334
23 3 -6.18462 -20.6154 -24.0513
24 3 -5.15385 -18.8974 -22.3334
25 1 -4.12308 -20.6154 -24.0513
26 1 -3.09231 -18.8974 -22.3334
27 3 -2.06154 -20.6154 -24.0513
28 2 -1.03077 -18.8974 -22.3334
29 2 -14.43078 -17.1795 -24.0513
30 1 -13.40004 -15.4616 -22.3334
31 1 -12.36924 -17.1795 -24.0513
32 3 -11.33844 -15.4616 -22.3334
33 3 -10.3077 -17.1795 -24.0513
34 2 -9.27696 -15.4616 -22.3334
35 3 -8.24616 -17.1795 -24.0513
36 4 -7.21542 -15.4616 -22.3334
37 3 -6.18462 -17.1795 -24.0513
38 3 -5.15385 -15.4616 -22.3334
39 1 -4.12308 -17.1795 -24.0513
40 4 -3.09231 -15.4616 -22.3334
41 2 -2.06154 -17.1795 -24.0513
42 4 -1.03077 -15.4616 -22.3334
43 2 -14.43078 -13.7436 -24.0513
45 3 -12.36924 -13.7436 -24.0513
47 3 -10.3077 -13.7436 -24.0513
49 2 -8.24616 -13.7436 -24.0513
51 1 -6.18462 -13.7436 -24.0513
53 1 -4.12308 -13.7436 -24.0513
55 2 -2.06154 -13.7436 -24.0513
44 4 -13.40004 -12.0257 -22.3334
57 2 -14.43078 -10.3077 -24.0513
46 1 -11.33844 -12.0257 -22.3334
59 2 -12.36924 -10.3077 -24.0513
48 1 -9.27696 -12.0257 -22.3334
61 3 -10.3077 -10.3077 -24.0513
63 3 -8.24616 -10.3077 -24.0513
50 3 -7.21542 -12.0257 -22.3334
65 3 -6.18462 -10.3077 -24.0513
52 3 -5.15385 -12.0257 -22.3334
67 4 -4.12308 -10.3077 -24.0513
54 2 -3.09231 -12.0257 -22.3334
69 3 -2.06154 -10.3077 -24.0513
56 3 -1.03077 -12.0257 -22.3334
58 2 -13.40004 -8.58975 -22.3334
71 3 -14.43078 -6.8718 -24.0513
60 3 -11.33844 -8.58975 -22.3334
73 1 -12.36924 -6.8718 -24.0513
62 3 -9.27696 -8.58975 -22.3334
75 4 -10.3077 -6.8718 -24.0513
77 2 -8.24616 -6.8718 -24.0513
64 3 -7.21542 -8.58975 -22.3334
79 1 -6.18462 -6.8718 -24.0513
66 4 -5.15385 -8.58975 -22.3334
81 3 -4.12308 -6.8718 -24.0513
68 3 -3.09231 -8.58975 -22.3334
83 2 -2.06154 -6.8718 -24.0513
70 3 -1.03077 -8.58975 -22.3334
72 1 -13.40004 -5.15385 -22.3334
85 4 -14.43078 -3.4359 -24.0513
74 2 -11.33844 -5.15385 -22.3334
87 1 -12.36924 -3.4359 -24.0513
76 1 -9.27696 -5.15385 -22.3334
89 1 -10.3077 -3.4359 -24.0513
91 1 -8.24616 -3.4359 -24.0513
78 2 -7.21542 -5.15385 -22.3334
93 3 -6.18462 -3.4359 -24.0513
80 1 -5.15385 -5.15385 -22.3334
95 1 -4.12308 -3.4359 -24.0513
82 1 -3.09231 -5.15385 -22.3334
97 4 -2.06154 -3.4359 -24.0513
84 2 -1.03077 -5.15385 -22.3334
86 4 -13.40004 -1.71795 -22.3334
88 2 -11.33844 -1.71795 -22.3334
90 1 -9.27696 -1.71795 -22.3334
92 4 -7.21542 -1.71795 -22.3334
94 1 -5.15385 -1.71795 -22.3334
96 1 -3.09231 -1.71795 -22.3334
98 1 -1.03077 -1.71795 -22.3334
99 1 -14.43078 -24.0513 -20.6154
100 3 -13.40004 -22.3334 -18.8974
101 1 -12.36924 -24.0513 -20.6154
102 2 -11.33844 -22.3334 -18.8974
103 4 -10.3077 -24.0513 -20.6154
104 4 -9.27696 -22.3334 -18.8974
105 4 -8.24616 -24.0513 -20.6154
106 1 -7.21542 -22.3334 -18.8974
107 2 -6.18462 -24.0513 -20.6154
108 4 -5.15385 -22.3334 -18.8974
109 1 -4.12308 -24.0513 -20.6154
110 3 -3.09231 -22.3334 -18.8974
111 4 -2.06154 -24.0513 -20.6154
112 2 -1.03077 -22.3334 -18.8974
113 2 -14.43078 -20.6154 -20.6154
114 4 -13.40004 -18.8974 -18.8974
115 3 -12.36924 -20.6154 -20.6154
116 2 -11.33844 -18.8974 -18.8974
117 2 -10.3077 -20.6154 -20.6154
118 2 -9.27696 -18.8974 -18.8974
119 3 -8.24616 -20.6154 -20.6154
120 3 -7.21542 -18.8974 -18.8974
121 4 -6.18462 -20.6154 -20.6154
122 4 -5.15385 -18.8974 -18.8974
123 1 -4.12308 -20.6154 -20.6154
124 4 -3.09231 -18.8974 -18.8974
125 1 -2.06154 -20.6154 -20.6154
126 3 -1.03077 -18.8974 -18.8974
127 4 -14.43078 -17.1795 -20.6154
128 3 -13.40004 -15.4616 -18.8974
129 4 -12.36924 -17.1795 -20.6154
130 4 -11.33844 -15.4616 -18.8974
131 3 -10.3077 -17.1795 -20.6154
132 2 -9.27696 -15.4616 -18.8974
133 4 -8.24616 -17.1795 -20.6154
134 3 -7.21542 -15.4616 -18.8974
135 3 -6.18462 -17.1795 -20.6154
136 4 -5.15385 -15.4616 -18.8974
137 3 -4.12308 -17.1795 -20.6154
138 2 -3.09231 -15.4616 -18.8974
139 1 -2.06154 -17.1795 -20.6154
140 4 -1.03077 -15.4616 -18.8974
141 2 -14.43078 -13.7436 -20.6154
143 3 -12.36924 -13.7436 -20.6154
145 4 -10.3077 -13.7436 -20.6154
147 3 -8.24616 -13.7436 -20.6154
149 2 -6.18462 -13.7436 -20.6154
151 3 -4.12308 -13.7436 -20.6154
153 2 -2.06154 -13.7436 -20.6154
142 3 -13.40004 -12.0257 -18.8974
155 3 -14.43078 -10.3077 -20.6154
144 3 -11.33844 -12.0257 -18.8974
157 4 -12.36924 -10.3077 -20.6154
146 3 -9.27696 -12.0257 -18.8974
159 1 -10.3077 -10.3077 -20.6154
161 2 -8.24616 -10.3077 -20.6154
148 2 -7.21542 -12.0257 -18.8974
163 2 -6.18462 -10.3077 -20.6154
150 1 -5.15385 -12.0257 -18.8974
165 4 -4.12308 -10.3077 -20.6154
152 1 -3.09231 -12.0257 -18.8974
167 4 -2.06154 -10.3077 -20.6154
154 2 -1.03077 -12.0257 -18.8974
156 3 -13.40004 -8.58975 -18.8974
169 4 -14.43078 -6.8718 -20.6154
158 3 -11.33844 -8.58975 -18.8974
171 4 -12.36924 -6.8718 -20.6154
160 1 -9.27696 -8.58975 -18.8974
173 1 -10.3077 -6.8718 -20.6154
175 2 -8.24616 -6.8718 -20.6154
162 4 -7.21542 -8.58975 -18.8974
177 3 -6.18462 -6.8718 -20.6154
164 4 -5.15385 -8.58975 -18.8974
179 2 -4.12308 -6.8718 -20.6154
166 2 -3.09231 -8.58975 -18.8974
181 4 -2.06154 -6.8718 -20.6154
168 1 -1.03077 -8.58975 -18.8974
170 4 -13.40004 -5.15385 -18.8974
183 4 -14.43078 -3.4359 -20.6154
172 3 -11.33844 -5.15385 -18.8974
185 2 -12.36924 -3.4359 -20.6154
174 3 -9.27696 -5.15385 -18.8974
187 4 -10.3077 -3.4359 -20.6154
189 2 -8.24616 -3.4359 -20.6154
176 2 -7.21542 -5.15385 -18.8974
191 1 -6.18462 -3.4359 -20.6154
178 3 -5.15385 -5.15385 -18.8974
193 3 -4.12308 -3.4359 -20.6154
180 2 -3.09231 -5.15385 -18.8974
195 2 -2.06154 -3.4359 -20.6154
182 3 -1.03077 -5.15385 -18.8974
184 3 -13.40004 -1.71795 -18.8974
186 2 -11.33844 -1.71795 -18.8974
188 2 -9.27696 -1.71795 -18.8974
190 3 -7.21542 -1.71795 -18.8974
192 2 -5.15385 -1.71795 -18.8974
194 3 -3.09231 -1.71795 -18.8974
196 4 -1.03077 -1.71795 -18.8974
197 2 -14.43078 -24.0513 -17.1795
198 3 -13.40004 -22.3334 -15.4616
199 1 -12.36924 -24.0513 -17.1795
200 2 -11.33844 -22.3334 -15.4616
201 1 -10.3077 -24.0513 -17.1795
202 2 -9.27696 -22.3334 -15.4616
203 3 -8.24616 -24.0513 -17.1795
204 2 -7.21542 -22.3334 -15.4616
205 2 -6.18462 -24.0513 -17.1795
206 1 -5.15385 -22.3334 -15.4616
207 4 -4.12308 -24.0513 -17.1795
208 4 -3.09231 -22.3334 -15.4616
209 2 -2.06154 -24.0513 -17.1795
210 3 -1.03077 -22.3334 -15.4616
211 2 -14.43078 -20.6154 -17.1795
212 1 -13.40004 -18.8974 -15.4616
213 2 -12.36924 -20.6154 -17.1795
214 3 -11.33844 -18.8974 -15.4616
215 2 -10.3077 -20.6154 -17.1795
216 4 -9.27696 -18.8974 -15.4616
217 2 -8.24616 -20.6154 -17.1795
218 3 -7.21542 -18.8974 -15.4616
219 2 -6.18462 -20.6154 -17.1795
220 3 -5.15385 -18.8974 -15.4616
221 4 -4.12308 -20.6154 -17.1795
222 4 -3.09231 -18.8974 -15.4616
223 2 -2.06154 -20.6154 -17.1795
224 2 -1.03077 -18.8974 -15.4616
225 2 -14.43078 -17.1795 -17.1795
226 1 -13.40004 -15.4616 -15.4616
227 4 -12.36924 -17.1795 -17.1795
228 4 -11.33844 -15.4616 -15.4616
229 3 -10.3077 -17.1795 -17.1795
230 1 -9.27696 -15.4616 -15.4616
231 1 -8.24616 -17.1795 -17.1795
232 1 -7.21542 -15.4616 -15.4616
233 1 -6.18462 -17.1795 -17.1795
234 3 -5.15385 -15.4616 -15.4616
235 1 -4.12308 -17.1795 -17.1795
236 3 -3.09231 -15.4616 -15.4616
237 3 -2.06154 -17.1795 -17.1795
238 3 -1.03077 -15.4616 -15.4616
239 4 -14.43078 -13.7436 -17.1795
241 3 -12.36924 -13.7436 -17.1795
243 3 -10.3077 -13.7436 -17.1795
245 3 -8.24616 -13.7436 -17.1795
247 2 -6.18462 -13.7436 -17.1795
249 3 -4.12308 -13.7436 -17.1795
251 3 -2.06154 -13.7436 -17.1795
240 4 -13.40004 -12.0257 -15.4616
253 2 -14.43078 -10.3077 -17.1795
242 4 -11.33844 -12.0257 -15.4616
255 2 -12.36924 -10.3077 -17.1795
244 3 -9.27696 -12.0257 -15.4616
257 1 -10.3077 -10.3077 -17.1795
259 2 -8.24616 -10.3077 -17.1795
246 2 -7.21542 -12.0257 -15.4616
261 2 -6.18462 -10.3077 -17.1795
248 2 -5.15385 -12.0257 -15.4616
263 4 -4.12308 -10.3077 -17.1795
250 1 -3.09231 -12.0257 -15.4616
265 4 -2.06154 -10.3077 -17.1795
252 4 -1.03077 -12.0257 -15.4616
254 1 -13.40004 -8.58975 -15.4616
267 1 -14.43078 -6.8718 -17.1795
256 3 -11.33844 -8.58975 -15.4616
269 1 -12.36924 -6.8718 -17.1795
258 2 -9.27696 -8.58975 -15.4616
271 2 -10.3077 -6.8718 -17.1795
273 1 -8.24616 -6.8718 -17.1795
260 4 -7.21542 -8.58975 -15.4616
275 2 -6.18462 -6.8718 -17.1795
262 2 -5.15385 -8.58975 -15.4616
277 3 -4.12308 -6.8718 -17.1795
264 3 -3.09231 -8.58975 -15.4616
279 2 -2.06154 -6.8718 -17.1795
266 4 -1.03077 -8.58975 -15.4616
268 3 -13.40004 -5.15385 -15.4616
281 3 -14.43078 -3.4359 -17.1795
270 3 -11.33844 -5.15385 -15.4616
283 4 -12.36924 -3.4359 -17.1795
272 4 -9.27696 -5.15385 -15.4616
285 3 -10.3077 -3.4359 -17.1795
287 4 -8.24616 -3.4359 -17.1795
274 4 -7.21542 -5.15385 -15.4616
289 1 -6.18462 -3.4359 -17.1795
276 3 -5.15385 -5.15385 -15.4616
291 1 -4.12308 -3.4359 -17.1795
278 1 -3.09231 -5.15385 -15.4616
293 2 -2.06154 -3.4359 -17.1795
280 4 -1.03077 -5.15385 -15.4616
282 3 -13.40004 -1.71795 -15.4616
284 2 -11.33844 -1.71795 -15.4616
286 1 -9.27696 -1.71795 -15.4616
288 2 -7.21542 -1.71795 -15.4616
290 3 -5.15385 -1.71795 -15.4616
292 2 -3.09231 -1.71795 -15.4616
294 1 -1.03077 -1.71795 -15.4616
295 4 -14.43078 -24.0513 -13.7436
297 3 -12.36924 -24.0513 -13.7436
299 1 -10.3077 -24.0513 -13.7436
301 3 -8.24616 -24.0513 -13.7436
303 4 -6.18462 -24.0513 -13.7436
305 3 -4.12308 -24.0513 -13.7436
307 4 -2.06154 -24.0513 -13.7436
309 1 -14.43078 -20.6154 -13.7436
311 4 -12.36924 -20.6154 -13.7436
313 1 -10.3077 -20.6154 -13.7436
315 3 -8.24616 -20.6154 -13.7436
317 1 -6.18462 -20.6154 -13.7436
319 1 -4.12308 -20.6154 -13.7436
321 3 -2.06154 -20.6154 -13.7436
323 2 -14.43078 -17.1795 -13.7436
325 2 -12.36924 -17.1795 -13.7436
327 3 -10.3077 -17.1795 -13.7436
329 4 -8.24616 -17.1795 -13.7436
331 2 -6.18462 -17.1795 -13.7436
333 2 -4.12308 -17.1795 -13.7436
335 1 -2.06154 -17.1795 -13.7436
337 3 -14.43078 -13.7436 -13.7436
339 2 -12.36924 -13.7436 -13.7436
341 2 -10.3077 -13.7436 -13.7436
343 1 -8.24616 -13.7436 -13.7436
345 3 -6.18462 -13.7436 -13.7436
347 2 -4.12308 -13.7436 -13.7436
349 1 -2.06154 -13.7436 -13.7436
351 1 -14.43078 -10.3077 -13.7436
353 1 -12.36924 -10.3077 -13.7436
355 4 -10.3077 -10.3077 -13.7436
357 3 -8.24616 -10.3077 -13.7436
359 1 -6.18462 -10.3077 -13.7436
361 2 -4.12308 -10.3077 -13.7436
363 2 -2.06154 -10.3077 -13.7436
365 3 -14.43078 -6.8718 -13.7436
367 3 -12.36924 -6.8718 -13.7436
369 1 -10.3077 -6.8718 -13.7436
371 2 -8.24616 -6.8718 -13.7436
373 3 -6.18462 -6.8718 -13.7436
375 2 -4.12308 -6.8718 -13.7436
377 1 -2.06154 -6.8718 -13.7436
379 1 -14.43078 -3.4359 -13.7436
381 3 -12.36924 -3.4359 -13.7436
383 1 -10.3077 -3.4359 -13.7436
385 4 -8.24616 -3.4359 -13.7436
387 2 -6.18462 -3.4359 -13.7436
389 2 -4.12308 -3.4359 -13.7436
391 1 -2.06154 -3.4359 -13.7436
296 3 -13.40004 -22.3334 -12.0257
393 3 -14.43078 -24.0513 -10.3077
298 4 -11.33844 -22.3334 -12.0257
395 4 -12.36924 -24.0513 -10.3077
300 2 -9.27696 -22.3334 -12.0257
397 1 -10.3077 -24.0513 -10.3077
399 3 -8.24616 -24.0513 -10.3077
302 4 -7.21542 -22.3334 -12.0257
401 2 -6.18462 -24.0513 -10.3077
304 1 -5.15385 -22.3334 -12.0257
403 4 -4.12308 -24.0513 -10.3077
306 3 -3.09231 -22.3334 -12.0257
405 3 -2.06154 -24.0513 -10.3077
308 1 -1.03077 -22.3334 -12.0257
310 1 -13.40004 -18.8974 -12.0257
407 1 -14.43078 -20.6154 -10.3077
312 4 -11.33844 -18.8974 -12.0257
409 1 -12.36924 -20.6154 -10.3077
314 1 -9.27696 -18.8974 -12.0257
411 3 -10.3077 -20.6154 -10.3077
413 4 -8.24616 -20.6154 -10.3077
316 4 -7.21542 -18.8974 -12.0257
415 3 -6.18462 -20.6154 -10.3077
318 3 -5.15385 -18.8974 -12.0257
417 1 -4.12308 -20.6154 -10.3077
320 4 -3.09231 -18.8974 -12.0257
419 2 -2.06154 -20.6154 -10.3077
322 2 -1.03077 -18.8974 -12.0257
324 1 -13.40004 -15.4616 -12.0257
421 1 -14.43078 -17.1795 -10.3077
326 3 -11.33844 -15.4616 -12.0257
423 3 -12.36924 -17.1795 -10.3077
328 4 -9.27696 -15.4616 -12.0257
425 2 -10.3077 -17.1795 -10.3077
427 1 -8.24616 -17.1795 -10.3077
330 1 -7.21542 -15.4616 -12.0257
429 3 -6.18462 -17.1795 -10.3077
332 2 -5.15385 -15.4616 -12.0257
431 1 -4.12308 -17.1795 -10.3077
334 4 -3.09231 -15.4616 -12.0257
433 3 -2.06154 -17.1795 -10.3077
336 3 -1.03077 -15.4616 -12.0257
435 4 -14.43078 -13.7436 -10.3077
437 4 -12.36924 -13.7436 -10.3077
439 3 -10.3077 -13.7436 -10.3077
441 3 -8.24616 -13.7436 -10.3077
443 2 -6.18462 -13.7436 -10.3077
445 2 -4.12308 -13.7436 -10.3077
447 3 -2.06154 -13.7436 -10.3077
338 1 -13.40004 -12.0257 -12.0257
449 1 -14.43078 -10.3077 -10.3077
340 4 -11.33844 -12.0257 -12.0257
451 3 -12.36924 -10.3077 -10.3077
342 4 -9.27696 -12.0257 -12.0257
453 1 -10.3077 -10.3077 -10.3077
455 3 -8.24616 -10.3077 -10.3077
344 1 -7.21542 -12.0257 -12.0257
457 1 -6.18462 -10.3077 -10.3077
346 2 -5.15385 -12.0257 -12.0257
459 3 -4.12308 -10.3077 -10.3077
348 4 -3.09231 -12.0257 -12.0257
461 3 -2.06154 -10.3077 -10.3077
350 3 -1.03077 -12.0257 -12.0257
352 3 -13.40004 -8.58975 -12.0257
463 4 -14.43078 -6.8718 -10.3077
354 1 -11.33844 -8.58975 -12.0257
465 2 -12.36924 -6.8718 -10.3077
356 1 -9.27696 -8.58975 -12.0257
467 3 -10.3077 -6.8718 -10.3077
469 1 -8.24616 -6.8718 -10.3077
358 3 -7.21542 -8.58975 -12.0257
471 2 -6.18462 -6.8718 -10.3077
360 2 -5.15385 -8.58975 -12.0257
473 3 -4.12308 -6.8718 -10.3077
362 2 -3.09231 -8.58975 -12.0257
475 3 -2.06154 -6.8718 -10.3077
364 4 -1.03077 -8.58975 -12.0257
366 3 -13.40004 -5.15385 -12.0257
477 3 -14.43078 -3.4359 -10.3077
368 3 -11.33844 -5.15385 -12.0257
479 3 -12.36924 -3.4359 -10.3077
370 3 -9.27696 -5.15385 -12.0257
481 3 -10.3077 -3.4359 -10.3077
483 1 -8.24616 -3.4359 -10.3077
372 4 -7.21542 -5.15385 -12.0257
485 3 -6.18462 -3.4359 -10.3077
374 3 -5.15385 -5.15385 -12.0257
487 1 -4.12308 -3.4359 -10.3077
376 4 -3.09231 -5.15385 -12.0257
489 2 -2.06154 -3.4359 -10.3077
378 3 -1.03077 -5.15385 -12.0257
380 4 -13.40004 -1.71795 -12.0257
382 1 -11.33844 -1.71795 -12.0257
384 4 -9.27696 -1.71795 -12.0257
386 3 -7.21542 -1.71795 -12.0257
388 1 -5.15385 -1.71795 -12.0257
390 2 -3.09231 -1.71795 -12.0257
392 4 -1.03077 -1.71795 -12.0257
394 1 -13.40004 -22.3334 -8.58975
491 4 -14.43078 -24.0513 -6.8718
396 1 -11.33844 -22.3334 -8.58975
493 2 -12.36924 -24.0513 -6.8718
398 4 -9.27696 -22.3334 -8.58975
495 4 -10.3077 -24.0513 -6.8718
497 4 -8.24616 -24.0513 -6.8718
400 2 -7.21542 -22.3334 -8.58975
499 2 -6.18462 -24.0513 -6.8718
402 2 -5.15385 -22.3334 -8.58975
501 3 -4.12308 -24.0513 -6.8718
404 1 -3.09231 -22.3334 -8.58975
503 3 -2.06154 -24.0513 -6.8718
406 1 -1.03077 -22.3334 -8.58975
408 3 -13.40004 -18.8974 -8.58975
505 3 -14.43078 -20.6154 -6.8718
410 4 -11.33844 -18.8974 -8.58975
507 2 -12.36924 -20.6154 -6.8718
412 4 -9.27696 -18.8974 -8.58975
509 2 -10.3077 -20.6154 -6.8718
511 3 -8.24616 -20.6154 -6.8718
414 3 -7.21542 -18.8974 -8.58975
513 3 -6.18462 -20.6154 -6.8718
416 3 -5.15385 -18.8974 -8.58975
515 1 -4.12308 -20.6154 -6.8718
418 2 -3.09231 -18.8974 -8.58975
517 4 -2.06154 -20.6154 -6.8718
420 1 -1.03077 -18.8974 -8.58975
422 2 -13.40004 -15.4616 -8.58975
519 2 -14.43078 -17.1795 -6.8718
424 4 -11.33844 -15.4616 -8.58975
521 2 -12.36924 -17.1795 -6.8718
426 4 -9.27696 -15.4616 -8.58975
523 3 -10.3077 -17.1795 -6.8718
525 3 -8.24616 -17.1795 -6.8718
428 4 -7.21542 -15.4616 -8.58975
527 1 -6.18462 -17.1795 -6.8718
430 4 -5.15385 -15.4616 -8.58975
529 1 -4.12308 -17.1795 -6.8718
432 2 -3.09231 -15.4616 -8.58975
531 4 -2.06154 -17.1795 -6.8718
434 4 -1.03077 -15.4616 -8.58975
533 2 -14.43078 -13.7436 -6.8718
535 3 -12.36924 -13.7436 -6.8718
537 1 -10.3077 -13.7436 -6.8718
539 1 -8.24616 -13.7436 -6.8718
541 3 -6.18462 -13.7436 -6.8718
543 3 -4.12308 -13.7436 -6.8718
545 1 -2.06154 -13.7436 -6.8718
436 2 -13.40004 -12.0257 -8.58975
547 4 -14.43078 -10.3077 -6.8718
438 2 -11.33844 -12.0257 -8.58975
549 3 -12.36924 -10.3077 -6.8718
440 1 -9.27696 -12.0257 -8.58975
551 2 -10.3077 -10.3077 -6.8718
553 2 -8.24616 -10.3077 -6.8718
442 4 -7.21542 -12.0257 -8.58975
555 4 -6.18462 -10.3077 -6.8718
444 3 -5.15385 -12.0257 -8.58975
557 2 -4.12308 -10.3077 -6.8718
446 1 -3.09231 -12.0257 -8.58975
559 4 -2.06154 -10.3077 -6.8718
448 4 -1.03077 -12.0257 -8.58975
450 3 -13.40004 -8.58975 -8.58975
561 4 -14.43078 -6.8718 -6.8718
452 3 -11.33844 -8.58975 -8.58975
563 2 -12.36924 -6.8718 -6.8718
454 3 -9.27696 -8.58975 -8.58975
565 1 -10.3077 -6.8718 -6.8718
567 4 -8.24616 -6.8718 -6.8718
456 3 -7.21542 -8.58975 -8.58975
569 2 -6.18462 -6.8718 -6.8718
458 4 -5.15385 -8.58975 -8.58975
571 4 -4.12308 -6.8718 -6.8718
460 1 -3.09231 -8.58975 -8.58975
573 3 -2.06154 -6.8718 -6.8718
462 2 -1.03077 -8.58975 -8.58975
464 4 -13.40004 -5.15385 -8.58975
575 3 -14.43078 -3.4359 -6.8718
466 4 -11.33844 -5.15385 -8.58975
577 1 -12.36924 -3.4359 -6.8718
468 1 -9.27696 -5.15385 -8.58975
579 1 -10.3077 -3.4359 -6.8718
581 4 -8.24616 -3.4359 -6.8718
470 2 -7.21542 -5.15385 -8.58975
583 2 -6.18462 -3.4359 -6.8718
472 4 -5.15385 -5.15385 -8.58975
585 4 -4.12308 -3.4359 -6.8718
474 3 -3.09231 -5.15385 -8.58975
587 2 -2.06154 -3.4359 -6.8718
476 2 -1.03077 -5.15385 -8.58975
478 1 -13.40004 -1.71795 -8.58975
480 1 -11.33844 -1.71795 -8.58975
482 3 -9.27696 -1.71795 -8.58975
484 2 -7.21542 -1.71795 -8.58975
486 1 -5.15385 -1.71795 -8.58975
488 3 -3.09231 -1.71795 -8.58975
490 4 -1.03077 -1.71795 -8.58975
492 4 -13.40004 -22.3334 -5.15385
589 3 -14.43078 -24.0513 -3.4359
494 4 -11.33844 -22.3334 -5.15385
591 3 -12.36924 -24.0513 -3.4359
496 3 -9.27696 -22.3334 -5.15385
593 3 -10.3077 -24.0513 -3.4359
595 1 -8.24616 -24.0513 -3.4359
498 1 -7.21542 -22.3334 -5.15385
597 2 -6.18462 -24.0513 -3.4359
500 1 -5.15385 -22.3334 -5.15385
599 3 -4.12308 -24.0513 -3.4359
502 3 -3.09231 -22.3334 -5.15385
601 2 -2.06154 -24.0513 -3.4359
504 2 -1.03077 -22.3334 -5.15385
506 1 -13.40004 -18.8974 -5.15385
603 2 -14.43078 -20.6154 -3.4359
508 4 -11.33844 -18.8974 -5.15385
605 2 -12.36924 -20.6154 -3.4359
510 4 -9.27696 -18.8974 -5.15385
607 3 -10.3077 -20.6154 -3.4359
609 1 -8.24616 -20.6154 -3.4359
512 1 -7.21542 -18.8974 -5.15385
611 3 -6.18462 -20.6154 -3.4359
514 3 -5.15385 -18.8974 -5.15385
613 2 -4.12308 -20.6154 -3.4359
516 1 -3.09231 -18.8974 -5.15385
615 4 -2.06154 -20.6154 -3.4359
518 2 -1.03077 -18.8974 -5.15385
520 2 -13.40004 -15.4616 -5.15385
617 2 -14.43078 -17.1795 -3.4359
522 3 -11.33844 -15.4616 -5.15385
619 1 -12.36924 -17.1795 -3.4359
524 2 -9.27696 -15.4616 -5.15385
621 1 -10.3077 -17.1795 -3.4359
623 1 -8.24616 -17.1795 -3.4359
526 4 -7.21542 -15.4616 -5.15385
625 1 -6.18462 -17.1795 -3.4359
528 1 -5.15385 -15.4616 -5.15385
627 2 -4.12308 -17.1795 -3.4359
530 1 -3.09231 -15.4616 -5.15385
629 3 -2.06154 -17.1795 -3.4359
532 3 -1.03077 -15.4616 -5.15385
631 2 -14.43078 -13.7436 -3.4359
633 1 -12.36924 -13.7436 -3.4359
635 4 -10.3077 -13.7436 -3.4359
637 3 -8.24616 -13.7436 -3.4359
639 4 -6.18462 -13.7436 -3.4359
641 2 -4.12308 -13.7436 -3.4359
643 1 -2.06154 -13.7436 -3.4359
534 4 -13.40004 -12.0257 -5.15385
645 4 -14.43078 -10.3077 -3.4359
536 3 -11.33844 -12.0257 -5.15385
647 4 -12.36924 -10.3077 -3.4359
538 2 -9.27696 -12.0257 -5.15385
649 3 -10.3077 -10.3077 -3.4359
651 4 -8.24616 -10.3077 -3.4359
540 2 -7.21542 -12.0257 -5.15385
653 2 -6.18462 -10.3077 -3.4359
542 3 -5.15385 -12.0257 -5.15385
655 4 -4.12308 -10.3077 -3.4359
544 3 -3.09231 -12.0257 -5.15385
657 4 -2.06154 -10.3077 -3.4359
546 2 -1.03077 -12.0257 -5.15385
548 1 -13.40004 -8.58975 -5.15385
659 1 -14.43078 -6.8718 -3.4359
550 4 -11.33844 -8.58975 -5.15385
661 2 -12.36924 -6.8718 -3.4359
552 2 -9.27696 -8.58975 -5.15385
663 2 -10.3077 -6.8718 -3.4359
665 3 -8.24616 -6.8718 -3.4359
554 4 -7.21542 -8.58975 -5.15385
667 3 -6.18462 -6.8718 -3.4359
556 2 -5.15385 -8.58975 -5.15385
669 1 -4.12308 -6.8718 -3.4359
558 2 -3.09231 -8.58975 -5.15385
671 1 -2.06154 -6.8718 -3.4359
560 4 -1.03077 -8.58975 -5.15385
562 1 -13.40004 -5.15385 -5.15385
673 1 -14.43078 -3.4359 -3.4359
564 3 -11.33844 -5.15385 -5.15385
675 4 -12.36924 -3.4359 -3.4359
566 3 -9.27696 -5.15385 -5.15385
677 4 -10.3077 -3.4359 -3.4359
679 3 -8.24616 -3.4359 -3.4359
568 1 -7.21542 -5.15385 -5.15385
681 3 -6.18462 -3.4359 -3.4359
570 3 -5.15385 -5.15385 -5.15385
683 2 -4.12308 -3.4359 -3.4359
572 3 -3.09231 -5.15385 -5.15385
685 1 -2.06154 -3.4359 -3.4359
574 1 -1.03077 -5.15385 -5.15385
576 2 -13.40004 -1.71795 -5.15385
578 1 -11.33844 -1.71795 -5.15385
580 4 -9.27696 -1.71795 -5.15385
582 4 -7.21542 -1.71795 -5.15385
584 1 -5.15385 -1.71795 -5.15385
586 1 -3.09231 -1.71795 -5.15385
588 4 -1.03077 -1.71795 -5.15385
590 1 -13.40004 -22.3334 -1.71795
592 2 -11.33844 -22.3334 -1.71795
594 3 -9.27696 -22.3334 -1.71795
596 2 -7.21542 -22.3334 -1.71795
598 4 -5.15385 -22.3334 -1.71795
600 4 -3.09231 -22.3334 -1.71795
602 2 -1.03077 -22.3334 -1.71795
604 3 -13.40004 -18.8974 -1.71795
606 1 -11.33844 -18.8974 -1.71795
608 3 -9.27696 -18.8974 -1.71795
610 1 -7.21542 -18.8974 -1.71795
612 4 -5.15385 -18.8974 -1.71795
614 2 -3.09231 -18.8974 -1.71795
616 3 -1.03077 -18.8974 -1.71795
618 1 -13.40004 -15.4616 -1.71795
620 3 -11.33844 -15.4616 -1.71795
622 1 -9.27696 -15.4616 -1.71795
624 1 -7.21542 -15.4616 -1.71795
626 3 -5.15385 -15.4616 -1.71795
628 1 -3.09231 -15.4616 -1.71795
630 2 -1.03077 -15.4616 -1.71795
632 2 -13.40004 -12.0257 -1.71795
634 3 -11.33844 -12.0257 -1.71795
636 3 -9.27696 -12.0257 -1.71795
638 3 -7.21542 -12.0257 -1.71795
640 3 -5.15385 -12.0257 -1.71795
642 3 -3.09231 -12.0257 -1.71795
644 3 -1.03077 -12.0257 -1.71795
646 2 -13.40004 -8.58975 -1.71795
648 3 -11.33844 -8.58975 -1.71795
650 4 -9.27696 -8.58975 -1.71795
652 1 -7.21542 -8.58975 -1.71795
654 2 -5.15385 -8.58975 -1.71795
656 1 -3.09231 -8.58975 -1.71795
658 3 -1.03077 -8.58975 -1.71795
660 4 -13.40004 -5.15385 -1.71795
662 2 -11.33844 -5.15385 -1.71795
664 3 -9.27696 -5.15385 -1.71795
666 1 -7.21542 -5.15385 -1.71795
668 1 -5.15385 -5.15385 -1.71795
670 3 -3.09231 -5.15385 -1.71795
672 1 -1.03077 -5.15385 -1.71795
674 2 -13.40004 -1.71795 -1.71795
676 1 -11.33844 -1.71795 -1.71795
678 4 -9.27696 -1.71795 -1.71795
680 3 -7.21542 -1.71795 -1.71795
682 4 -5.15385 -1.71795 -1.71795
684 1 -3.09231 -1.71795 -1.71795
686 1 -1.03077 -1.71795 -1.71795
687 3 -14.43078 -24.0513 0.0
688 2 -13.40004 -22.3334 1.71795
689 1 -12.36924 -24.0513 0.0
690 2 -11.33844 -22.3334 1.71795
691 2 -10.3077 -24.0513 0.0
692 2 -9.27696 -22.3334 1.71795
693 1 -8.24616 -24.0513 0.0
694 3 -7.21542 -22.3334 1.71795
695 2 -6.18462 -24.0513 0.0
696 1 -5.15385 -22.3334 1.71795
697 4 -4.12308 -24.0513 0.0
698 3 -3.09231 -22.3334 1.71795
699 4 -2.06154 -24.0513 0.0
700 1 -1.03077 -22.3334 1.71795
701 3 -14.43078 -20.6154 0.0
702 2 -13.40004 -18.8974 1.71795
703 1 -12.36924 -20.6154 0.0
704 3 -11.33844 -18.8974 1.71795
705 2 -10.3077 -20.6154 0.0
706 4 -9.27696 -18.8974 1.71795
707 1 -8.24616 -20.6154 0.0
708 1 -7.21542 -18.8974 1.71795
709 4 -6.18462 -20.6154 0.0
710 1 -5.15385 -18.8974 1.71795
711 3 -4.12308 -20.6154 0.0
712 4 -3.09231 -18.8974 1.71795
713 1 -2.06154 -20.6154 0.0
714 1 -1.03077 -18.8974 1.71795
715 1 -14.43078 -17.1795 0.0
716 2 -13.40004 -15.4616 1.71795
717 4 -12.36924 -17.1795 0.0
718 2 -11.33844 -15.4616 1.71795
719 2 -10.3077 -17.1795 0.0
720 1 -9.27696 -15.4616 1.71795
721 2 -8.24616 -17.1795 0.0
722 4 -7.21542 -15.4616 1.71795
723 1 -6.18462 -17.1795 0.0
724 3 -5.15385 -15.4616 1.71795
725 4 -4.12308 -17.1795 0.0
726 4 -3.09231 -15.4616 1.71795
727 4 -2.06154 -17.1795 0.0
728 3 -1.03077 -15.4616 1.71795
729 2 -14.43078 -13.7436 0.0
731 1 -12.36924 -13.7436 0.0
733 2 -10.3077 -13.7436 0.0
735 1 -8.24616 -13.7436 0.0
737 3 -6.18462 -13.7436 0.0
739 1 -4.12308 -13.7436 0.0
741 4 -2.06154 -13.7436 0.0
730 4 -13.40004 -12.0257 1.71795
743 2 -14.43078 -10.3077 0.0
732 2 -11.33844 -12.0257 1.71795
745 3 -12.36924 -10.3077 0.0
734 4 -9.27696 -12.0257 1.71795
747 1 -10.3077 -10.3077 0.0
749 3 -8.24616 -10.3077 0.0
736 2 -7.21542 -12.0257 1.71795
751 3 -6.18462 -10.3077 0.0
738 2 -5.15385 -12.0257 1.71795
753 3 -4.12308 -10.3077 0.0
740 3 -3.09231 -12.0257 1.71795
755 4 -2.06154 -10.3077 0.0
742 3 -1.03077 -12.0257 1.71795
744 3 -13.40004 -8.58975 1.71795
757 1 -14.43078 -6.8718 0.0
746 3 -11.33844 -8.58975 1.71795
759 3 -12.36924 -6.8718 0.0
748 2 -9.27696 -8.58975 1.71795
761 1 -10.3077 -6.8718 0.0
763 4 -8.24616 -6.8718 0.0
750 1 -7.21542 -8.58975 1.71795
765 4 -6.18462 -6.8718 0.0
752 3 -5.15385 -8.58975 1.71795
767 2 -4.12308 -6.8718 0.0
754 3 -3.09231 -8.58975 1.71795
769 3 -2.06154 -6.8718 0.0
756 2 -1.03077 -8.58975 1.71795
758 3 -13.40004 -5.15385 1.71795
771 2 -14.43078 -3.4359 0.0
760 2 -11.33844 -5.15385 1.71795
773 3 -12.36924 -3.4359 0.0
762 1 -9.27696 -5.15385 1.71795
775 1 -10.3077 -3.4359 0.0
777 4 -8.24616 -3.4359 0.0
764 4 -7.21542 -5.15385 1.71795
779 3 -6.18462 -3.4359 0.0
766 1 -5.15385 -5.15385 1.71795
781 4 -4.12308 -3.4359 0.0
768 4 -3.09231 -5.15385 1.71795
783 4 -2.06154 -3.4359 0.0
770 2 -1.03077 -5.15385 1.71795
772 2 -13.40004 -1.71795 1.71795
774 1 -11.33844 -1.71795 1.71795
776 1 -9.27696 -1.71795 1.71795
778 4 -7.21542 -1.71795 1.71795
780 1 -5.15385 -1.71795 1.71795
782 2 -3.09231 -1.71795 1.71795
784 4 -1.03077 -1.71795 1.71795
785 3 -14.43078 -24.0513 3.4359
786 2 -13.40004 -22.3334 5.15385
787 1 -12.36924 -24.0513 3.4359
788 1 -11.33844 -22.3334 5.15385
789 4 -10.3077 -24.0513 3.4359
790 1 -9.27696 -22.3334 5.15385
791 4 -8.24616 -24.0513 3.4359
792 3 -7.21542 -22.3334 5.15385
793 3 -6.18462 -24.0513 3.4359
794 4 -5.15385 -22.3334 5.15385
795 4 -4.12308 -24.0513 3.4359
796 3 -3.09231 -22.3334 5.15385
797 4 -2.06154 -24.0513 3.4359
798 1 -1.03077 -22.3334 5.15385
799 3 -14.43078 -20.6154 3.4359
800 3 -13.40004 -18.8974 5.15385
801 1 -12.36924 -20.6154 3.4359
802 3 -11.33844 -18.8974 5.15385
803 3 -10.3077 -20.6154 3.4359
804 3 -9.27696 -18.8974 5.15385
805 4 -8.24616 -20.6154 3.4359
806 2 -7.21542 -18.8974 5.15385
807 3 -6.18462 -20.6154 3.4359
808 3 -5.15385 -18.8974 5.15385
809 3 -4.12308 -20.6154 3.4359
810 1 -3.09231 -18.8974 5.15385
811 3 -2.06154 -20.6154 3.4359
812 3 -1.03077 -18.8974 5.15385
813 3 -14.43078 -17.1795 3.4359
814 2 -13.40004 -15.4616 5.15385
815 1 -12.36924 -17.1795 3.4359
816 1 -11.33844 -15.4616 5.15385
817 2 -10.3077 -17.1795 3.4359
818 4 -9.27696 -15.4616 5.15385
819 4 -8.24616 -17.1795 3.4359
820 3 -7.21542 -15.4616 5.15385
821 4 -6.18462 -17.1795 3.4359
822 3 -5.15385 -15.4616 5.15385
823 3 -4.12308 -17.1795 3.4359
824 4 -3.09231 -15.4616 5.15385
825 2 -2.06154 -17.1795 3.4359
826 3 -1.03077 -15.4616 5.15385
827 1 -14.43078 -13.7436 3.4359
829 1 -12.36924 -13.7436 3.4359
831 2 -10.3077 -13.7436 3.4359
833 1 -8.24616 -13.7436 3.4359
835 4 -6.18462 -13.7436 3.4359
837 1 -4.12308 -13.7436 3.4359
839 4 -2.06154 -13.7436 3.4359
828 3 -13.40004 -12.0257 5.15385
841 4 -14.43078 -10.3077 3.4359
830 1 -11.33844 -12.0257 5.15385
843 3 -12.36924 -10.3077 3.4359
832 3 -9.27696 -12.0257 5.15385
845 4 -10.3077 -10.3077 3.4359
847 3 -8.24616 -10.3077 3.4359
834 2 -7.21542 -12.0257 5.15385
849 4 -6.18462 -10.3077 3.4359
836 2 -5.15385 -12.0257 5.15385
851 2 -4.12308 -10.3077 3.4359
838 2 -3.09231 -12.0257 5.15385
853 3 -2.06154 -10.3077 3.4359
840 1 -1.03077 -12.0257 5.15385
842 1 -13.40004 -8.58975 5.15385
855 3 -14.43078 -6.8718 3.4359
844 3 -11.33844 -8.58975 5.15385
857 2 -12.36924 -6.8718 3.4359
846 3 -9.27696 -8.58975 5.15385
859 4 -10.3077 -6.8718 3.4359
861 2 -8.24616 -6.8718 3.4359
848 2 -7.21542 -8.58975 5.15385
863 3 -6.18462 -6.8718 3.4359
850 2 -5.15385 -8.58975 5.15385
865 4 -4.12308 -6.8718 3.4359
852 2 -3.09231 -8.58975 5.15385
867 1 -2.06154 -6.8718 3.4359
854 4 -1.03077 -8.58975 5.15385
856 3 -13.40004 -5.15385 5.15385
869 2 -14.43078 -3.4359 3.4359
858 2 -11.33844 -5.15385 5.15385
871 2 -12.36924 -3.4359 3.4359
860 3 -9.27696 -5.15385 5.15385
873 2 -10.3077 -3.4359 3.4359
875 1 -8.24616 -3.4359 3.4359
862 1 -7.21542 -5.15385 5.15385
877 2 -6.18462 -3.4359 3.4359
864 2 -5.15385 -5.15385 5.15385
879 1 -4.12308 -3.4359 3.4359
866 3 -3.09231 -5.15385 5.15385
881 3 -2.06154 -3.4359 3.4359
868 3 -1.03077 -5.15385 5.15385
870 1 -13.40004 -1.71795 5.15385
872 4 -11.33844 -1.71795 5.15385
874 4 -9.27696 -1.71795 5.15385
876 4 -7.21542 -1.71795 5.15385
878 4 -5.15385 -1.71795 5.15385
880 1 -3.09231 -1.71795 5.15385
882 4 -1.03077 -1.71795 5.15385
883 2 -14.43078 -24.0513 6.8718
884 4 -13.40004 -22.3334 8.58975
885 2 -12.36924 -24.0513 6.8718
886 2 -11.33844 -22.3334 8.58975
887 2 -10.3077 -24.0513 6.8718
888 3 -9.27696 -22.3334 8.58975
889 3 -8.24616 -24.0513 6.8718
890 2 -7.21542 -22.3334 8.58975
891 2 -6.18462 -24.0513 6.8718
892 4 -5.15385 -22.3334 8.58975
893 2 -4.12308 -24.0513 6.8718
894 4 -3.09231 -22.3334 8.58975
895 2 -2.06154 -24.0513 6.8718
896 4 -1.03077 -22.3334 8.58975
897 1 -14.43078 -20.6154 6.8718
898 4 -13.40004 -18.8974 8.58975
899 3 -12.36924 -20.6154 6.8718
900 2 -11.33844 -18.8974 8.58975
901 3 -10.3077 -20.6154 6.8718
902 3 -9.27696 -18.8974 8.58975
903 4 -8.24616 -20.6154 6.8718
904 1 -7.21542 -18.8974 8.58975
905 3 -6.18462 -20.6154 6.8718
906 1 -5.15385 -18.8974 8.58975
907 4 -4.12308 -20.6154 6.8718
908 2 -3.09231 -18.8974 8.58975
909 3 -2.06154 -20.6154 6.8718
910 4 -1.03077 -18.8974 8.58975
911 4 -14.43078 -17.1795 6.8718
912 4 -13.40004 -15.4616 8.58975
913 3 -12.36924 -17.1795 6.8718
914 4 -11.33844 -15.4616 8.58975
915 4 -10.3077 -17.1795 6.8718
916 1 -9.27696 -15.4616 8.58975
917 1 -8.24616 -17.1795 6.8718
918 3 -7.21542 -15.4616 8.58975
919 1 -6.18462 -17.1795 6.8718
920 4 -5.15385 -15.4616 8.58975
921 4 -4.12308 -17.1795 6.8718