ITEM: TIMESTEP
0
ITEM: NUMBER OF ATOMS
20
ITEM: BOX BOUNDS pp pp pp
-24.0513 24.0513
-24.0513 24.0513
-24.0513 24.0513
ITEM: ATOMS id type x y z
1173 1 -6.8718 -3.4359 13.7436
1175 2 -3.4359 -3.4359 13.7436
1076 1 -5.15385 -1.71795 12.0257
1257 2 -6.8718 -6.8718 17.1795
1269 1 -10.3077 -3.4359 17.1795
1158 1 -8.58975 -5.15385 15.4616
1160 1 -5.15385 -5.15385 15.4616
1273 4 -3.4359 -3.4359 17.1795
1172 2 -8.58975 -1.71795 15.4616
1176 4 -1.71795 -1.71795 15.4616
1256 3 -8.58975 -5.15385 18.8974
1369 1 -6.8718 -3.4359 20.6154
1258 2 -5.15385 -5.15385 18.8974
1270 4 -8.58975 -1.71795 18.8974
1272 2 -5.15385 -1.71795 18.8974
2461 2 -6.8718 0.0 13.7436
2463 2 -3.4359 0.0 13.7436
2559 1 -6.8718 0.0 17.1795
2462 2 -5.15385 1.71795 15.4616
2561 4 -3.4359 0.0 17.1795
