ITEM: TIMESTEP
0
ITEM: NUMBER OF ATOMS
20
ITEM: BOX BOUNDS pp pp pp
-24.0513 24.0513
-24.0513 24.0513
-24.0513 24.0513
ITEM: ATOMS id type x y z
4763 2 3.4359 13.7436 -3.4359
4765 3 6.8718 13.7436 -3.4359
4666 2 5.15385 15.4616 -5.15385
4777 3 3.4359 17.1795 -3.4359
4779 4 6.8718 17.1795 -3.4359
4750 1 5.15385 12.0257 -1.71795
4762 3 1.71795 15.4616 -1.71795
4766 3 8.58975 15.4616 -1.71795
4778 1 5.15385 18.8974 -1.71795
4780 4 8.58975 18.8974 -1.71795
4861 1 3.4359 13.7436 0.0
4863 1 6.8718 13.7436 0.0
4862 4 5.15385 15.4616 1.71795
4875 3 3.4359 17.1795 0.0
4864 4 8.58975 15.4616 1.71795
4879 3 10.3077 17.1795 0.0
4876 3 5.15385 18.8974 1.71795
4878 2 8.58975 18.8974 1.71795
4891 1 6.8718 20.6154 0.0
4975 3 6.8718 17.1795 3.4359
