ITEM: TIMESTEP
0
ITEM: NUMBER OF ATOMS
20
ITEM: BOX BOUNDS pp pp pp
-120.2565 120.2565
-120.2565 120.2565
-120.2565 120.2565
ITEM: ATOMS id type x y z
322205 3 13.7436 -54.9744 61.8462
322207 3 17.1795 -54.9744 61.8462
322219 1 13.7436 -51.5385 61.8462
322108 4 15.4616 -53.25645 60.1283
322221 3 17.1795 -51.5385 61.8462
322291 2 17.1795 -58.4103 65.2821
322303 3 13.7436 -54.9744 65.2821
322192 3 15.4616 -56.69235 63.5642
322194 3 18.8974 -56.69235 63.5642
322307 1 20.6154 -54.9744 65.2821
322204 4 12.0257 -53.25645 63.5642
322317 3 13.7436 -51.5385 65.2821
322319 3 17.1795 -51.5385 65.2821
322208 3 18.8974 -53.25645 63.5642
322220 4 15.4616 -49.82055 63.5642
322290 3 15.4616 -56.69235 67.0
322403 1 17.1795 -54.9744 68.718
322292 4 18.8974 -56.69235 67.0
322304 2 15.4616 -53.25645 67.0
322306 2 18.8974 -53.25645 67.0
