ITEM: TIMESTEP
0
ITEM: NUMBER OF ATOMS
20
ITEM: BOX BOUNDS pp pp pp
-24.0513 24.0513
-24.0513 24.0513
-24.0513 24.0513
ITEM: ATOMS id type x y z
99 1 -24.0513 -24.0513 -20.6154
2754 3 15.4616 -22.3334 -22.3334
2755 4 17.1795 -24.0513 -24.0513
2757 4 20.6154 -24.0513 -24.0513
2758 2 22.3334 -22.3334 -22.3334
2769 1 17.1795 -20.6154 -24.0513
2770 3 18.8974 -18.8974 -22.3334
2771 4 20.6154 -20.6154 -24.0513
2853 3 17.1795 -24.0513 -20.6154
2854 1 18.8974 -22.3334 -18.8974
2856 1 22.3334 -22.3334 -18.8974
2867 2 17.1795 -20.6154 -20.6154
2869 3 20.6154 -20.6154 -20.6154
2953 2 20.6154 -24.0513 -17.1795
4030 2 18.8974 -22.3334 22.3334
4212 4 18.8974 22.3334 -22.3334
4214 3 22.3334 22.3334 -22.3334
4311 3 20.6154 20.6154 -20.6154
4310 3 18.8974 22.3334 -18.8974
4312 1 22.3334 22.3334 -18.8974
