ITEM: TIMESTEP
0
ITEM: NUMBER OF ATOMS
14
ITEM: BOX BOUNDS pp pp pp
-72.1539 120.2565
-72.1539 120.2565
-72.1539 120.2565
ITEM: ATOMS id type x y z Cluster
179519 3 65.2821 -54.9744 -34.359 0
179603 2 65.2821 -58.4103 -30.9231 0
179615 3 61.8462 -54.9744 -30.9231 0
179504 3 63.5642 -56.69235 -32.641 0
179506 3 67.0 -56.69235 -32.641 0
179619 1 68.718 -54.9744 -30.9231 0
179518 2 63.5642 -53.25645 -32.641 0
179631 3 65.2821 -51.5385 -30.9231 0
179520 3 67.0 -53.25645 -32.641 0
179602 3 63.5642 -56.69235 -29.2052 0
179715 1 65.2821 -54.9744 -27.4872 0
179604 4 67.0 -56.69235 -29.2052 0
179616 2 63.5642 -53.25645 -29.2052 0
179618 2 67.0 -53.25645 -29.2052 0
