ITEM: TIMESTEP
0
ITEM: NUMBER OF ATOMS
14
ITEM: BOX BOUNDS pp pp pp
-72.1539 120.2565
-72.1539 120.2565
-72.1539 120.2565
ITEM: ATOMS id type x y z Cluster
130139 1 13.7436 -3.4359 109.9488 1
130040 2 12.0257 -1.71795 108.2309 1
130042 2 15.4616 -1.71795 108.2309 1
130138 3 12.0257 -1.71795 111.6668 1
130140 4 15.4616 -1.71795 111.6668 1
131329 3 13.7436 0.0 106.5129 1
131425 4 10.3077 0.0 109.9488 1
131328 3 12.0257 1.71795 108.2309 1
131330 2 15.4616 1.71795 108.2309 1
131429 1 17.1795 0.0 109.9488 1
131441 4 13.7436 3.4359 109.9488 1
131426 4 12.0257 1.71795 111.6668 1
131525 1 13.7436 0.0 113.3847 1
131428 4 15.4616 1.71795 111.6668 1
