ITEM: TIMESTEP
0
ITEM: NUMBER OF ATOMS
57
ITEM: BOX BOUNDS pp pp pp
-24.0513 24.0513
-24.0513 24.0513
-24.0513 24.0513
ITEM: ATOMS id type x y z Cluster
683 2 -6.8718 -3.4359 -3.4359 1
685 1 -3.4359 -3.4359 -3.4359 1
584 1 -8.58975 -1.71795 -5.15385 1
586 1 -5.15385 -1.71795 -5.15385 1
588 4 -1.71795 -1.71795 -5.15385 1
670 3 -5.15385 -5.15385 -1.71795 1
672 1 -1.71795 -5.15385 -1.71795 1
682 4 -8.58975 -1.71795 -1.71795 1
781 4 -6.8718 -3.4359 0.0 1
783 4 -3.4359 -3.4359 0.0 1
782 2 -5.15385 -1.71795 1.71795 1
784 4 -1.71795 -1.71795 1.71795 1
1873 1 -6.8718 0.0 -6.8718 1
1776 4 -5.15385 1.71795 -8.58975 1
1875 4 -3.4359 0.0 -6.8718 1
1887 4 -6.8718 3.4359 -6.8718 1
1889 3 -3.4359 3.4359 -6.8718 1
1969 1 -10.3077 0.0 -3.4359 1
1872 3 -8.58975 1.71795 -5.15385 1
1876 4 -1.71795 1.71795 -5.15385 1
1985 4 -6.8718 3.4359 -3.4359 1
1888 3 -5.15385 5.15385 -5.15385 1
1890 2 -1.71795 5.15385 -5.15385 1
2001 4 -3.4359 6.8718 -3.4359 1
1970 1 -8.58975 1.71795 -1.71795 1
1986 4 -5.15385 5.15385 -1.71795 1
1988 2 -1.71795 5.15385 -1.71795 1
2069 3 -6.8718 0.0 0.0 1
2070 4 -5.15385 1.71795 1.71795 1
2083 3 -6.8718 3.4359 0.0 1
2084 1 -5.15385 5.15385 1.71795 1
2086 3 -1.71795 5.15385 1.71795 1
2099 1 -3.4359 6.8718 0.0 1
2169 3 -3.4359 0.0 3.4359 1
2170 3 -1.71795 1.71795 5.15385 1
2183 4 -3.4359 3.4359 3.4359 1
3417 2 0.0 -3.4359 -3.4359 1
3320 3 1.71795 -1.71795 -5.15385 1
3418 2 1.71795 -1.71795 -1.71795 1
3515 3 0.0 -3.4359 0.0 1
3516 1 1.71795 -1.71795 1.71795 1
4607 1 0.0 0.0 -6.8718 1
4621 2 0.0 3.4359 -6.8718 1
4608 2 1.71795 1.71795 -5.15385 1
4707 4 3.4359 0.0 -3.4359 1
4622 1 1.71795 5.15385 -5.15385 1
4721 1 3.4359 3.4359 -3.4359 1
4733 4 0.0 6.8718 -3.4359 1
4706 4 1.71795 1.71795 -1.71795 1
4720 3 1.71795 5.15385 -1.71795 1
4804 4 1.71795 1.71795 1.71795 1
4805 4 3.4359 0.0 0.0 1
4818 1 1.71795 5.15385 1.71795 1
4819 1 3.4359 3.4359 0.0 1
4831 1 0.0 6.8718 0.0 1
4901 2 0.0 0.0 3.4359 1
4915 3 0.0 3.4359 3.4359 1
