ITEM: TIMESTEP
0
ITEM: NUMBER OF ATOMS
14
ITEM: BOX BOUNDS pp pp pp
-72.1539 120.2565
-72.1539 120.2565
-72.1539 120.2565
ITEM: ATOMS id type x y z Cluster
35862 1 -36.0769 -1.71795 29.2052 686
35864 3 -32.641 -1.71795 29.2052 686
35961 3 -34.359 -3.4359 30.9231 686
35960 3 -36.0769 -1.71795 32.641 686
35962 4 -32.641 -1.71795 32.641 686
37150 1 -36.0769 1.71795 29.2052 686
37151 4 -34.359 0.0 27.4872 686
37152 2 -32.641 1.71795 29.2052 686
37247 4 -37.7949 0.0 30.9231 686
37248 1 -36.0769 1.71795 32.641 686
37250 1 -32.641 1.71795 32.641 686
37251 4 -30.9231 0.0 30.9231 686
37263 4 -34.359 3.4359 30.9231 686
37347 4 -34.359 0.0 34.359 686
