ITEM: TIMESTEP
0
ITEM: NUMBER OF ATOMS
14
ITEM: BOX BOUNDS pp pp pp
-72.1539 120.2565
-72.1539 120.2565
-72.1539 120.2565
ITEM: ATOMS id type x y z Cluster
302624 4 94.48725 -1.71795 97.92315 0
302722 4 94.48725 -1.71795 101.35905 0
303912 3 94.48725 1.71795 97.92315 0
304009 3 92.7693 0.0 99.6411 0
304010 3 94.48725 1.71795 101.35905 0
305356 1 97.92315 -1.71795 97.92315 0
305453 3 96.2052 -3.4359 99.6411 0
305454 1 97.92315 -1.71795 101.35905 0
306643 3 96.2052 0.0 96.2052 0
306644 4 97.92315 1.71795 97.92315 0
306742 3 97.92315 1.71795 101.35905 0
306743 1 99.6411 0.0 99.6411 0
306755 3 96.2052 3.4359 99.6411 0
306839 1 96.2052 0.0 103.077 0
