ITEM: TIMESTEP
0
ITEM: NUMBER OF ATOMS
8
ITEM: BOX BOUNDS pp pp pp
-120.2565 120.2565
-120.2565 120.2565
-120.2565 120.2565
ITEM: ATOMS id type x y z Cluster
14214 1 -94.48725 -97.92315 5.15385 163
15502 3 -94.48725 -94.48725 5.15385 163
15503 1 -92.7693 -96.2052 3.4359 163
15504 4 -91.05135 -94.48725 5.15385 163
15599 1 -96.2052 -96.2052 6.8718 163
15600 1 -94.48725 -94.48725 8.58975 163
15601 4 -92.7693 -96.2052 6.8718 163
15615 4 -92.7693 -92.7693 6.8718 163
