ITEM: TIMESTEP
0
ITEM: NUMBER OF ATOMS
14
ITEM: BOX BOUNDS pp pp pp
-72.1539 120.2565
-72.1539 120.2565
-72.1539 120.2565
ITEM: ATOMS id type x y z Cluster
326726 1 108.2309 46.38465 77.3078 427
326728 3 111.6668 46.38465 77.3078 427
326825 3 109.9488 44.6667 79.0257 427
326824 3 108.2309 46.38465 80.7436 427
326826 4 111.6668 46.38465 80.7436 427
328014 1 108.2309 49.82055 77.3078 427
328015 4 109.9488 48.1026 75.5898 427
328016 2 111.6668 49.82055 77.3078 427
328111 4 106.5129 48.1026 79.0257 427
328112 1 108.2309 49.82055 80.7436 427
328114 1 111.6668 49.82055 80.7436 427
328115 4 113.3847 48.1026 79.0257 427
328127 4 109.9488 51.5385 79.0257 427
328211 4 109.9488 48.1026 82.4616 427
