ITEM: TIMESTEP
0
ITEM: NUMBER OF ATOMS
8
ITEM: BOX BOUNDS pp pp pp
-120.2565 120.2565
-120.2565 120.2565
-120.2565 120.2565
ITEM: ATOMS id type x y z Cluster
334301 2 -10.3077 -24.0513 37.7949 34
334204 1 -8.58975 -22.3334 36.0769 34
334315 3 -10.3077 -20.6154 37.7949 34
334300 2 -12.0257 -22.3334 39.51285 34
334399 2 -10.3077 -24.0513 41.2308 34
334302 2 -8.58975 -22.3334 39.51285 34
334413 3 -10.3077 -20.6154 41.2308 34
334398 1 -12.0257 -22.3334 42.94875 34
