ITEM: TIMESTEP
0
ITEM: NUMBER OF ATOMS
14
ITEM: BOX BOUNDS pp pp pp
-72.1539 120.2565
-72.1539 120.2565
-72.1539 120.2565
ITEM: ATOMS id type x y z Cluster
327506 4 101.35905 46.38465 104.79495 1
328696 4 101.35905 49.82055 101.35905 1
328792 1 97.92315 49.82055 104.79495 1
328793 4 99.6411 48.1026 103.077 1
328795 1 103.077 48.1026 103.077 1
328796 2 104.79495 49.82055 104.79495 1
328807 4 99.6411 51.5385 103.077 1
328808 1 101.35905 53.25645 104.79495 1
328809 1 103.077 51.5385 103.077 1
328891 2 99.6411 48.1026 106.5129 1
328893 2 103.077 48.1026 106.5129 1
328905 2 99.6411 51.5385 106.5129 1
328907 3 103.077 51.5385 106.5129 1
328892 3 101.35905 49.82055 108.2309 1
