ITEM: TIMESTEP
0
ITEM: NUMBER OF ATOMS
14
ITEM: BOX BOUNDS pp pp pp
-72.1539 120.2565
-72.1539 120.2565
-72.1539 120.2565
ITEM: ATOMS id type x y z Cluster
152079 3 17.1795 41.2308 109.9488 0
152163 2 17.1795 37.7949 113.3847 0
152175 3 13.7436 41.2308 113.3847 0
152064 3 15.4616 39.51285 111.6668 0
152066 3 18.8974 39.51285 111.6668 0
152179 1 20.6154 41.2308 113.3847 0
152078 2 15.4616 42.94875 111.6668 0
152191 3 17.1795 44.6667 113.3847 0
152080 3 18.8974 42.94875 111.6668 0
152162 3 15.4616 39.51285 115.1026 0
152275 1 17.1795 41.2308 116.8206 0
152164 4 18.8974 39.51285 115.1026 0
152176 2 15.4616 42.94875 115.1026 0
152178 2 18.8974 42.94875 115.1026 0
