ITEM: TIMESTEP
0
ITEM: NUMBER OF ATOMS
8
ITEM: BOX BOUNDS pp pp pp
-120.2565 120.2565
-120.2565 120.2565
-120.2565 120.2565
ITEM: ATOMS id type x y z Cluster
517714 1 49.82055 94.48725 5.15385 102
519002 3 49.82055 97.92315 5.15385 102
519003 1 51.5385 96.2052 3.4359 102
519004 4 53.25645 97.92315 5.15385 102
519099 1 48.1026 96.2052 6.8718 102
519100 1 49.82055 97.92315 8.58975 102
519101 4 51.5385 96.2052 6.8718 102
519115 4 51.5385 99.6411 6.8718 102
