ITEM: TIMESTEP
0
ITEM: NUMBER OF ATOMS
14
ITEM: BOX BOUNDS pp pp pp
-72.1539 120.2565
-72.1539 120.2565
-72.1539 120.2565
ITEM: ATOMS id type x y z Cluster
25490 3 -32.641 -22.3334 -42.94875 0
25492 3 -29.2052 -22.3334 -42.94875 0
25504 1 -32.641 -18.8974 -42.94875 0
25505 2 -30.9231 -20.6154 -44.6667 0
25506 3 -29.2052 -18.8974 -42.94875 0
25588 4 -32.641 -22.3334 -39.51285 0
25589 3 -30.9231 -24.0513 -41.2308 0
25590 2 -29.2052 -22.3334 -39.51285 0
25601 3 -34.359 -20.6154 -41.2308 0
25602 2 -32.641 -18.8974 -39.51285 0
25604 3 -29.2052 -18.8974 -39.51285 0
25605 3 -27.4872 -20.6154 -41.2308 0
25617 3 -30.9231 -17.1795 -41.2308 0
25701 2 -30.9231 -20.6154 -37.7949 0
