ITEM: TIMESTEP
0
ITEM: NUMBER OF ATOMS
14
ITEM: BOX BOUNDS pp pp pp
-72.1539 120.2565
-72.1539 120.2565
-72.1539 120.2565
ITEM: ATOMS id type x y z Cluster
177572 1 39.51285 -25.7692 -53.25645 1
198067 2 37.7949 -24.0513 -54.9744 1
197970 2 39.51285 -22.3334 -56.69235 1
198069 3 41.2308 -24.0513 -54.9744 1
198081 3 37.7949 -20.6154 -54.9744 1
198083 1 41.2308 -20.6154 -54.9744 1
198066 1 36.0769 -22.3334 -53.25645 1
198165 2 37.7949 -24.0513 -51.5385 1
198167 3 41.2308 -24.0513 -51.5385 1
198070 3 42.94875 -22.3334 -53.25645 1
198179 3 37.7949 -20.6154 -51.5385 1
198082 3 39.51285 -18.8974 -53.25645 1
198181 2 41.2308 -20.6154 -51.5385 1
198166 4 39.51285 -22.3334 -49.82055 1
