ITEM: TIMESTEP
0
ITEM: NUMBER OF ATOMS
14
ITEM: BOX BOUNDS pp pp pp
-72.1539 120.2565
-72.1539 120.2565
-72.1539 120.2565
ITEM: ATOMS id type x y z Cluster
234034 3 63.5642 25.7692 53.25645 0
234036 3 67.0 25.7692 53.25645 0
234048 1 63.5642 29.2052 53.25645 0
234049 2 65.2821 27.4872 51.5385 0
234050 3 67.0 29.2052 53.25645 0
234132 4 63.5642 25.7692 56.69235 0
234133 3 65.2821 24.0513 54.9744 0
234134 2 67.0 25.7692 56.69235 0
234145 3 61.8462 27.4872 54.9744 0
234146 2 63.5642 29.2052 56.69235 0
234148 3 67.0 29.2052 56.69235 0
234149 3 68.718 27.4872 54.9744 0
234161 3 65.2821 30.9231 54.9744 0
234245 2 65.2821 27.4872 58.4103 0
