ITEM: TIMESTEP
0
ITEM: NUMBER OF ATOMS
14
ITEM: BOX BOUNDS pp pp pp
-72.1539 120.2565
-72.1539 120.2565
-72.1539 120.2565
ITEM: ATOMS id type x y z Cluster
202216 3 70.436 8.58975 -53.25645 336
287170 1 73.8718 8.58975 -56.69235 336
287267 3 72.1539 6.8718 -54.9744 336
287269 1 75.5898 6.8718 -54.9744 336
287281 4 72.1539 10.3077 -54.9744 336
287283 1 75.5898 10.3077 -54.9744 336
287254 2 73.8718 5.15385 -53.25645 336
287365 2 72.1539 6.8718 -51.5385 336
287270 3 77.3078 8.58975 -53.25645 336
287367 1 75.5898 6.8718 -51.5385 336
287379 4 72.1539 10.3077 -51.5385 336
287381 1 75.5898 10.3077 -51.5385 336
287282 3 73.8718 12.0257 -53.25645 336
287366 1 73.8718 8.58975 -49.82055 336
