ITEM: TIMESTEP
0
ITEM: NUMBER OF ATOMS
14
ITEM: BOX BOUNDS pp pp pp
-72.1539 120.2565
-72.1539 120.2565
-72.1539 120.2565
ITEM: ATOMS id type x y z Cluster
349647 3 113.3847 89.3334 109.9488 0
349731 2 113.3847 85.8975 113.3847 0
349743 3 109.9488 89.3334 113.3847 0
349632 3 111.6668 87.61545 111.6668 0
349634 3 115.1026 87.61545 111.6668 0
349747 1 116.8206 89.3334 113.3847 0
349646 2 111.6668 91.05135 111.6668 0
349759 3 113.3847 92.7693 113.3847 0
349648 3 115.1026 91.05135 111.6668 0
349730 3 111.6668 87.61545 115.1026 0
349843 1 113.3847 89.3334 116.8206 0
349732 4 115.1026 87.61545 115.1026 0
349744 2 111.6668 91.05135 115.1026 0
349746 2 115.1026 91.05135 115.1026 0
