ITEM: TIMESTEP
0
ITEM: NUMBER OF ATOMS
14
ITEM: BOX BOUNDS pp pp pp
-72.1539 120.2565
-72.1539 120.2565
-72.1539 120.2565
ITEM: ATOMS id type x y z Cluster
253232 4 46.38465 94.48725 49.82055 0
253330 4 46.38465 94.48725 53.25645 0
254520 3 46.38465 97.92315 49.82055 0
254617 3 44.6667 96.2052 51.5385 0
254618 3 46.38465 97.92315 53.25645 0
255964 1 49.82055 94.48725 49.82055 0
256061 3 48.1026 92.7693 51.5385 0
256062 1 49.82055 94.48725 53.25645 0
257251 3 48.1026 96.2052 48.1026 0
257252 4 49.82055 97.92315 49.82055 0
257350 3 49.82055 97.92315 53.25645 0
257351 1 51.5385 96.2052 51.5385 0
257363 3 48.1026 99.6411 51.5385 0
257447 1 48.1026 96.2052 54.9744 0
