ITEM: TIMESTEP
0
ITEM: NUMBER OF ATOMS
8
ITEM: BOX BOUNDS pp pp pp
-120.2565 120.2565
-120.2565 120.2565
-120.2565 120.2565
ITEM: ATOMS id type x y z Cluster
210314 1 -46.38465 -1.71795 101.35905 220
211602 3 -46.38465 1.71795 101.35905 220
211603 1 -44.6667 0.0 99.6411 220
211604 4 -42.94875 1.71795 101.35905 220
211699 1 -48.1026 0.0 103.077 220
211700 1 -46.38465 1.71795 104.79495 220
211701 4 -44.6667 0.0 103.077 220
211715 4 -44.6667 3.4359 103.077 220
