ITEM: TIMESTEP
0
ITEM: NUMBER OF ATOMS
14
ITEM: BOX BOUNDS pp pp pp
-72.1539 120.2565
-72.1539 120.2565
-72.1539 120.2565
ITEM: ATOMS id type x y z Cluster
152091 1 13.7436 44.6667 109.9488 1
151992 2 12.0257 46.38465 108.2309 1
151994 2 15.4616 46.38465 108.2309 1
152090 3 12.0257 46.38465 111.6668 1
152092 4 15.4616 46.38465 111.6668 1
153281 3 13.7436 48.1026 106.5129 1
153377 4 10.3077 48.1026 109.9488 1
153280 3 12.0257 49.82055 108.2309 1
153282 2 15.4616 49.82055 108.2309 1
153381 1 17.1795 48.1026 109.9488 1
153393 4 13.7436 51.5385 109.9488 1
153378 4 12.0257 49.82055 111.6668 1
153477 1 13.7436 48.1026 113.3847 1
153380 4 15.4616 49.82055 111.6668 1
