ITEM: TIMESTEP
0
ITEM: NUMBER OF ATOMS
14
ITEM: BOX BOUNDS pp pp pp
-72.1539 120.2565
-72.1539 120.2565
-72.1539 120.2565
ITEM: ATOMS id type x y z Cluster
48552 3 -25.7692 56.69235 -53.25645 527
133506 1 -22.3334 56.69235 -56.69235 527
133603 3 -24.0513 54.9744 -54.9744 527
133605 1 -20.6154 54.9744 -54.9744 527
133617 4 -24.0513 58.4103 -54.9744 527
133619 1 -20.6154 58.4103 -54.9744 527
133590 2 -22.3334 53.25645 -53.25645 527
133701 2 -24.0513 54.9744 -51.5385 527
133606 3 -18.8974 56.69235 -53.25645 527
133703 1 -20.6154 54.9744 -51.5385 527
133715 4 -24.0513 58.4103 -51.5385 527
133717 1 -20.6154 58.4103 -51.5385 527
133618 3 -22.3334 60.1283 -53.25645 527
133702 1 -22.3334 56.69235 -49.82055 527
