ITEM: TIMESTEP
0
ITEM: NUMBER OF ATOMS
14
ITEM: BOX BOUNDS pp pp pp
-72.1539 120.2565
-72.1539 120.2565
-72.1539 120.2565
ITEM: ATOMS id type x y z Cluster
231280 4 46.38465 46.38465 49.82055 0
231378 4 46.38465 46.38465 53.25645 0
232568 3 46.38465 49.82055 49.82055 0
232665 3 44.6667 48.1026 51.5385 0
232666 3 46.38465 49.82055 53.25645 0
234012 1 49.82055 46.38465 49.82055 0
234109 3 48.1026 44.6667 51.5385 0
234110 1 49.82055 46.38465 53.25645 0
235299 3 48.1026 48.1026 48.1026 0
235300 4 49.82055 49.82055 49.82055 0
235398 3 49.82055 49.82055 53.25645 0
235399 1 51.5385 48.1026 51.5385 0
235411 3 48.1026 51.5385 51.5385 0
235495 1 48.1026 48.1026 54.9744 0
