ITEM: TIMESTEP
0
ITEM: NUMBER OF ATOMS
14
ITEM: BOX BOUNDS pp pp pp
-24.0513 24.0513
-24.0513 24.0513
-24.0513 24.0513
ITEM: ATOMS id type x y z Cluster
2934 1 12.0257 -1.71795 -18.8974 13
2936 3 15.4616 -1.71795 -18.8974 13
3033 3 13.7436 -3.4359 -17.1795 13
3032 3 12.0257 -1.71795 -15.4616 13
3034 4 15.4616 -1.71795 -15.4616 13
4222 1 12.0257 1.71795 -18.8974 13
4223 4 13.7436 0.0 -20.6154 13
4224 2 15.4616 1.71795 -18.8974 13
4319 4 10.3077 0.0 -17.1795 13
4320 1 12.0257 1.71795 -15.4616 13
4322 1 15.4616 1.71795 -15.4616 13
4323 4 17.1795 0.0 -17.1795 13
4335 4 13.7436 3.4359 -17.1795 13
4419 4 13.7436 0.0 -13.7436 13
