ITEM: TIMESTEP
0
ITEM: NUMBER OF ATOMS
8
ITEM: BOX BOUNDS pp pp pp
-120.2565 120.2565
-120.2565 120.2565
-120.2565 120.2565
ITEM: ATOMS id type x y z Cluster
106401 2 -106.5129 72.1539 -106.5129 135
106304 1 -104.79495 73.8718 -108.2309 135
106415 3 -106.5129 75.5898 -106.5129 135
106400 2 -108.2309 73.8718 -104.79495 135
106499 2 -106.5129 72.1539 -103.077 135
106402 2 -104.79495 73.8718 -104.79495 135
106513 3 -106.5129 75.5898 -103.077 135
106498 1 -108.2309 73.8718 -101.35905 135
