ITEM: TIMESTEP
0
ITEM: NUMBER OF ATOMS
14
ITEM: BOX BOUNDS pp pp pp
-72.1539 120.2565
-72.1539 120.2565
-72.1539 120.2565
ITEM: ATOMS id type x y z Cluster
23908 1 -56.69235 22.3334 -53.25645 1
44403 2 -58.4103 24.0513 -54.9744 1
44306 2 -56.69235 25.7692 -56.69235 1
44405 3 -54.9744 24.0513 -54.9744 1
44417 3 -58.4103 27.4872 -54.9744 1
44419 1 -54.9744 27.4872 -54.9744 1
44402 1 -60.1283 25.7692 -53.25645 1
44501 2 -58.4103 24.0513 -51.5385 1
44503 3 -54.9744 24.0513 -51.5385 1
44406 3 -53.25645 25.7692 -53.25645 1
44515 3 -58.4103 27.4872 -51.5385 1
44418 3 -56.69235 29.2052 -53.25645 1
44517 2 -54.9744 27.4872 -51.5385 1
44502 4 -56.69235 25.7692 -49.82055 1
