ITEM: TIMESTEP
0
ITEM: NUMBER OF ATOMS
14
ITEM: BOX BOUNDS pp pp pp
-72.1539 120.2565
-72.1539 120.2565
-72.1539 120.2565
ITEM: ATOMS id type x y z Cluster
311042 4 101.35905 46.38465 -39.51285 1
312232 4 101.35905 49.82055 -42.94875 1
312328 1 97.92315 49.82055 -39.51285 1
312329 4 99.6411 48.1026 -41.2308 1
312331 1 103.077 48.1026 -41.2308 1
312332 2 104.79495 49.82055 -39.51285 1
312343 4 99.6411 51.5385 -41.2308 1
312344 1 101.35905 53.25645 -39.51285 1
312345 1 103.077 51.5385 -41.2308 1
312427 2 99.6411 48.1026 -37.7949 1
312429 2 103.077 48.1026 -37.7949 1
312441 2 99.6411 51.5385 -37.7949 1
312443 3 103.077 51.5385 -37.7949 1
312428 3 101.35905 49.82055 -36.0769 1
