ITEM: TIMESTEP
0
ITEM: NUMBER OF ATOMS
14
ITEM: BOX BOUNDS pp pp pp
-72.1539 120.2565
-72.1539 120.2565
-72.1539 120.2565
ITEM: ATOMS id type x y z Cluster
272450 3 -80.7436 -70.436 5.15385 1
272452 3 -77.3078 -70.436 5.15385 1
272464 1 -80.7436 -67.0 5.15385 1
272465 2 -79.0257 -68.718 3.4359 1
272466 3 -77.3078 -67.0 5.15385 1
272548 4 -80.7436 -70.436 8.58975 1
272549 3 -79.0257 -72.1539 6.8718 1
272550 2 -77.3078 -70.436 8.58975 1
272561 3 -82.4616 -68.718 6.8718 1
272562 2 -80.7436 -67.0 8.58975 1
272564 3 -77.3078 -67.0 8.58975 1
272565 3 -75.5898 -68.718 6.8718 1
272577 3 -79.0257 -65.2821 6.8718 1
272661 2 -79.0257 -68.718 10.3077 1
