ITEM: TIMESTEP
0
ITEM: NUMBER OF ATOMS
14
ITEM: BOX BOUNDS pp pp pp
-72.1539 120.2565
-72.1539 120.2565
-72.1539 120.2565
ITEM: ATOMS id type x y z Cluster
167550 2 18.8974 87.61545 29.2052 761
167565 4 20.6154 89.3334 27.4872 761
167552 2 22.3334 87.61545 29.2052 761
167564 2 18.8974 91.05135 29.2052 761
167566 3 22.3334 91.05135 29.2052 761
167649 3 20.6154 85.8975 30.9231 761
167661 2 17.1795 89.3334 30.9231 761
167648 2 18.8974 87.61545 32.641 761
167650 2 22.3334 87.61545 32.641 761
167662 1 18.8974 91.05135 32.641 761
167677 1 20.6154 92.7693 30.9231 761
167664 4 22.3334 91.05135 32.641 761
167761 3 20.6154 89.3334 34.359 761
252715 1 24.0513 89.3334 30.9231 761
