ITEM: TIMESTEP
0
ITEM: NUMBER OF ATOMS
14
ITEM: BOX BOUNDS pp pp pp
-72.1539 120.2565
-72.1539 120.2565
-72.1539 120.2565
ITEM: ATOMS id type x y z Cluster
90718 2 18.8974 -56.69235 -67.0 808
90733 4 20.6154 -54.9744 -68.718 808
90720 2 22.3334 -56.69235 -67.0 808
90732 2 18.8974 -53.25645 -67.0 808
90734 3 22.3334 -53.25645 -67.0 808
90817 3 20.6154 -58.4103 -65.2821 808
90829 2 17.1795 -54.9744 -65.2821 808
90816 2 18.8974 -56.69235 -63.5642 808
90818 2 22.3334 -56.69235 -63.5642 808
90830 1 18.8974 -53.25645 -63.5642 808
90845 1 20.6154 -51.5385 -65.2821 808
90832 4 22.3334 -53.25645 -63.5642 808
90929 3 20.6154 -54.9744 -61.8462 808
175883 1 24.0513 -54.9744 -65.2821 808
