ITEM: TIMESTEP
0
ITEM: NUMBER OF ATOMS
8
ITEM: BOX BOUNDS pp pp pp
-120.2565 120.2565
-120.2565 120.2565
-120.2565 120.2565
ITEM: ATOMS id type x y z Cluster
223001 2 -58.4103 24.0513 -10.3077 241
222904 1 -56.69235 25.7692 -12.0257 241
223015 3 -58.4103 27.4872 -10.3077 241
223000 2 -60.1283 25.7692 -8.58975 241
223099 2 -58.4103 24.0513 -6.8718 241
223002 2 -56.69235 25.7692 -8.58975 241
223113 3 -58.4103 27.4872 -6.8718 241
223098 1 -60.1283 25.7692 -5.15385 241
