ITEM: TIMESTEP
0
ITEM: NUMBER OF ATOMS
14
ITEM: BOX BOUNDS pp pp pp
-72.1539 120.2565
-72.1539 120.2565
-72.1539 120.2565
ITEM: ATOMS id type x y z Cluster
314772 1 87.61545 70.436 -5.15385 1
335267 2 85.8975 72.1539 -6.8718 1
335170 2 87.61545 73.8718 -8.58975 1
335269 3 89.3334 72.1539 -6.8718 1
335281 3 85.8975 75.5898 -6.8718 1
335283 1 89.3334 75.5898 -6.8718 1
335266 1 84.1795 73.8718 -5.15385 1
335365 2 85.8975 72.1539 -3.4359 1
335367 3 89.3334 72.1539 -3.4359 1
335270 3 91.05135 73.8718 -5.15385 1
335379 3 85.8975 75.5898 -3.4359 1
335282 3 87.61545 77.3078 -5.15385 1
335381 2 89.3334 75.5898 -3.4359 1
335366 4 87.61545 73.8718 -1.71795 1
