ITEM: TIMESTEP
0
ITEM: NUMBER OF ATOMS
14
ITEM: BOX BOUNDS pp pp pp
-72.1539 120.2565
-72.1539 120.2565
-72.1539 120.2565
ITEM: ATOMS id type x y z Cluster
261474 3 63.5642 73.8718 101.35905 0
261476 3 67.0 73.8718 101.35905 0
261488 1 63.5642 77.3078 101.35905 0
261489 2 65.2821 75.5898 99.6411 0
261490 3 67.0 77.3078 101.35905 0
261572 4 63.5642 73.8718 104.79495 0
261573 3 65.2821 72.1539 103.077 0
261574 2 67.0 73.8718 104.79495 0
261585 3 61.8462 75.5898 103.077 0
261586 2 63.5642 77.3078 104.79495 0
261588 3 67.0 77.3078 104.79495 0
261589 3 68.718 75.5898 103.077 0
261601 3 65.2821 79.0257 103.077 0
261685 2 65.2821 75.5898 106.5129 0
