ITEM: TIMESTEP
0
ITEM: NUMBER OF ATOMS
14
ITEM: BOX BOUNDS pp pp pp
-72.1539 120.2565
-72.1539 120.2565
-72.1539 120.2565
ITEM: ATOMS id type x y z Cluster
144644 1 -8.58975 70.436 42.94875 1
165139 2 -10.3077 72.1539 41.2308 1
165042 2 -8.58975 73.8718 39.51285 1
165141 3 -6.8718 72.1539 41.2308 1
165153 3 -10.3077 75.5898 41.2308 1
165155 1 -6.8718 75.5898 41.2308 1
165138 1 -12.0257 73.8718 42.94875 1
165237 2 -10.3077 72.1539 44.6667 1
165239 3 -6.8718 72.1539 44.6667 1
165142 3 -5.15385 73.8718 42.94875 1
165251 3 -10.3077 75.5898 44.6667 1
165154 3 -8.58975 77.3078 42.94875 1
165253 2 -6.8718 75.5898 44.6667 1
165238 4 -8.58975 73.8718 46.38465 1
