ITEM: TIMESTEP
0
ITEM: NUMBER OF ATOMS
14
ITEM: BOX BOUNDS pp pp pp
-72.1539 120.2565
-72.1539 120.2565
-72.1539 120.2565
ITEM: ATOMS id type x y z Cluster
22736 4 -49.82055 -1.71795 -46.38465 0
22834 4 -49.82055 -1.71795 -42.94875 0
24024 3 -49.82055 1.71795 -46.38465 0
24121 3 -51.5385 0.0 -44.6667 0
24122 3 -49.82055 1.71795 -42.94875 0
25468 1 -46.38465 -1.71795 -46.38465 0
25565 3 -48.1026 -3.4359 -44.6667 0
25566 1 -46.38465 -1.71795 -42.94875 0
26755 3 -48.1026 0.0 -48.1026 0
26756 4 -46.38465 1.71795 -46.38465 0
26854 3 -46.38465 1.71795 -42.94875 0
26855 1 -44.6667 0.0 -44.6667 0
26867 3 -48.1026 3.4359 -44.6667 0
26951 1 -48.1026 0.0 -41.2308 0
