ITEM: TIMESTEP
0
ITEM: NUMBER OF ATOMS
14
ITEM: BOX BOUNDS pp pp pp
-72.1539 120.2565
-72.1539 120.2565
-72.1539 120.2565
ITEM: ATOMS id type x y z Cluster
199326 3 36.0769 22.3334 -60.1283 0
219724 2 36.0769 25.7692 -63.5642 0
219821 3 34.359 24.0513 -61.8462 0
219823 4 37.7949 24.0513 -61.8462 0
219835 3 34.359 27.4872 -61.8462 0
219837 1 37.7949 27.4872 -61.8462 0
219820 2 32.641 25.7692 -60.1283 0
219919 3 34.359 24.0513 -58.4103 0
219921 2 37.7949 24.0513 -58.4103 0
219824 1 39.51285 25.7692 -60.1283 0
219933 4 34.359 27.4872 -58.4103 0
219836 4 36.0769 29.2052 -60.1283 0
219935 3 37.7949 27.4872 -58.4103 0
219920 2 36.0769 25.7692 -56.69235 0
