ITEM: TIMESTEP
0
ITEM: NUMBER OF ATOMS
14
ITEM: BOX BOUNDS pp pp pp
-72.1539 120.2565
-72.1539 120.2565
-72.1539 120.2565
ITEM: ATOMS id type x y z Cluster
173062 1 12.0257 94.48725 77.3078 772
173064 3 15.4616 94.48725 77.3078 772
173161 3 13.7436 92.7693 79.0257 772
173160 3 12.0257 94.48725 80.7436 772
173162 4 15.4616 94.48725 80.7436 772
174350 1 12.0257 97.92315 77.3078 772
174351 4 13.7436 96.2052 75.5898 772
174352 2 15.4616 97.92315 77.3078 772
174447 4 10.3077 96.2052 79.0257 772
174448 1 12.0257 97.92315 80.7436 772
174450 1 15.4616 97.92315 80.7436 772
174451 4 17.1795 96.2052 79.0257 772
174463 4 13.7436 99.6411 79.0257 772
174547 4 13.7436 96.2052 82.4616 772
