ITEM: TIMESTEP
0
ITEM: NUMBER OF ATOMS
14
ITEM: BOX BOUNDS pp pp pp
-72.1539 120.2565
-72.1539 120.2565
-72.1539 120.2565
ITEM: ATOMS id type x y z Cluster
268103 2 99.6411 -30.9231 -54.9744 484
268187 2 99.6411 -34.359 -51.5385 484
268088 3 97.92315 -32.641 -53.25645 484
268199 3 96.2052 -30.9231 -51.5385 484
268090 2 101.35905 -32.641 -53.25645 484
268203 4 103.077 -30.9231 -51.5385 484
268102 4 97.92315 -29.2052 -53.25645 484
268104 2 101.35905 -29.2052 -53.25645 484
268215 4 99.6411 -27.4872 -51.5385 484
268186 3 97.92315 -32.641 -49.82055 484
268188 1 101.35905 -32.641 -49.82055 484
268200 4 97.92315 -29.2052 -49.82055 484
268202 1 101.35905 -29.2052 -49.82055 484
268299 3 99.6411 -30.9231 -48.1026 484
