ITEM: TIMESTEP
0
ITEM: NUMBER OF ATOMS
14
ITEM: BOX BOUNDS pp pp pp
-72.1539 120.2565
-72.1539 120.2565
-72.1539 120.2565
ITEM: ATOMS id type x y z Cluster
84500 3 -56.69235 101.35905 101.35905 842
84502 3 -53.25645 101.35905 101.35905 842
84514 4 -56.69235 104.79495 101.35905 842
84515 1 -54.9744 103.077 99.6411 842
84516 2 -53.25645 104.79495 101.35905 842
84598 4 -56.69235 101.35905 104.79495 842
84599 3 -54.9744 99.6411 103.077 842
84600 2 -53.25645 101.35905 104.79495 842
84611 4 -58.4103 103.077 103.077 842
84612 2 -56.69235 104.79495 104.79495 842
84614 2 -53.25645 104.79495 104.79495 842
84615 2 -51.5385 103.077 103.077 842
84627 2 -54.9744 106.5129 103.077 842
84711 4 -54.9744 103.077 106.5129 842
