ITEM: TIMESTEP
0
ITEM: NUMBER OF ATOMS
8
ITEM: BOX BOUNDS pp pp pp
-120.2565 120.2565
-120.2565 120.2565
-120.2565 120.2565
ITEM: ATOMS id type x y z Cluster
252714 1 -46.38465 94.48725 5.15385 190
254002 3 -46.38465 97.92315 5.15385 190
254003 1 -44.6667 96.2052 3.4359 190
254004 4 -42.94875 97.92315 5.15385 190
254099 1 -48.1026 96.2052 6.8718 190
254100 1 -46.38465 97.92315 8.58975 190
254101 4 -44.6667 96.2052 6.8718 190
254115 4 -44.6667 99.6411 6.8718 190
