ITEM: TIMESTEP
0
ITEM: NUMBER OF ATOMS
14
ITEM: BOX BOUNDS pp pp pp
-72.1539 120.2565
-72.1539 120.2565
-72.1539 120.2565
ITEM: ATOMS id type x y z Cluster
343190 1 108.2309 94.48725 29.2052 404
343192 3 111.6668 94.48725 29.2052 404
343289 3 109.9488 92.7693 30.9231 404
343288 3 108.2309 94.48725 32.641 404
343290 4 111.6668 94.48725 32.641 404
344478 1 108.2309 97.92315 29.2052 404
344479 4 109.9488 96.2052 27.4872 404
344480 2 111.6668 97.92315 29.2052 404
344575 4 106.5129 96.2052 30.9231 404
344576 1 108.2309 97.92315 32.641 404
344578 1 111.6668 97.92315 32.641 404
344579 4 113.3847 96.2052 30.9231 404
344591 4 109.9488 99.6411 30.9231 404
344675 4 109.9488 96.2052 34.359 404
