ITEM: TIMESTEP
0
ITEM: NUMBER OF ATOMS
14
ITEM: BOX BOUNDS pp pp pp
-72.1539 120.2565
-72.1539 120.2565
-72.1539 120.2565
ITEM: ATOMS id type x y z Cluster
157378 4 5.15385 94.48725 -39.51285 1
158568 4 5.15385 97.92315 -42.94875 1
158664 1 1.71795 97.92315 -39.51285 1
158665 4 3.4359 96.2052 -41.2308 1
158667 1 6.8718 96.2052 -41.2308 1
158668 2 8.58975 97.92315 -39.51285 1
158679 4 3.4359 99.6411 -41.2308 1
158680 1 5.15385 101.35905 -39.51285 1
158681 1 6.8718 99.6411 -41.2308 1
158763 2 3.4359 96.2052 -37.7949 1
158765 2 6.8718 96.2052 -37.7949 1
158777 2 3.4359 99.6411 -37.7949 1
158779 3 6.8718 99.6411 -37.7949 1
158764 3 5.15385 97.92315 -36.0769 1
