ITEM: TIMESTEP
0
ITEM: NUMBER OF ATOMS
14
ITEM: BOX BOUNDS pp pp pp
-72.1539 120.2565
-72.1539 120.2565
-72.1539 120.2565
ITEM: ATOMS id type x y z Cluster
68790 1 -36.0769 94.48725 -67.0 576
68792 3 -32.641 94.48725 -67.0 576
68889 3 -34.359 92.7693 -65.2821 576
68888 3 -36.0769 94.48725 -63.5642 576
68890 4 -32.641 94.48725 -63.5642 576
70078 1 -36.0769 97.92315 -67.0 576
70079 4 -34.359 96.2052 -68.718 576
70080 2 -32.641 97.92315 -67.0 576
70175 4 -37.7949 96.2052 -65.2821 576
70176 1 -36.0769 97.92315 -63.5642 576
70178 1 -32.641 97.92315 -63.5642 576
70179 4 -30.9231 96.2052 -65.2821 576
70191 4 -34.359 99.6411 -65.2821 576
70275 4 -34.359 96.2052 -61.8462 576
