ITEM: TIMESTEP
0
ITEM: NUMBER OF ATOMS
14
ITEM: BOX BOUNDS pp pp pp
-72.1539 120.2565
-72.1539 120.2565
-72.1539 120.2565
ITEM: ATOMS id type x y z Cluster
91522 4 5.15385 -49.82055 -39.51285 1
92712 4 5.15385 -46.38465 -42.94875 1
92808 1 1.71795 -46.38465 -39.51285 1
92809 4 3.4359 -48.1026 -41.2308 1
92811 1 6.8718 -48.1026 -41.2308 1
92812 2 8.58975 -46.38465 -39.51285 1
92823 4 3.4359 -44.6667 -41.2308 1
92824 1 5.15385 -42.94875 -39.51285 1
92825 1 6.8718 -44.6667 -41.2308 1
92907 2 3.4359 -48.1026 -37.7949 1
92909 2 6.8718 -48.1026 -37.7949 1
92921 2 3.4359 -44.6667 -37.7949 1
92923 3 6.8718 -44.6667 -37.7949 1
92908 3 5.15385 -46.38465 -36.0769 1
