ITEM: TIMESTEP
0
ITEM: NUMBER OF ATOMS
14
ITEM: BOX BOUNDS pp pp pp
-72.1539 120.2565
-72.1539 120.2565
-72.1539 120.2565
ITEM: ATOMS id type x y z Cluster
35814 2 -46.38465 -12.0257 29.2052 684
35816 1 -42.94875 -12.0257 29.2052 684
35829 4 -44.6667 -10.3077 27.4872 684
35828 3 -46.38465 -8.58975 29.2052 684
35830 2 -42.94875 -8.58975 29.2052 684
35913 3 -44.6667 -13.7436 30.9231 684
35912 4 -46.38465 -12.0257 32.641 684
35925 4 -48.1026 -10.3077 30.9231 684
35914 2 -42.94875 -12.0257 32.641 684
35929 2 -41.2308 -10.3077 30.9231 684
35926 3 -46.38465 -8.58975 32.641 684
35928 4 -42.94875 -8.58975 32.641 684
35941 4 -44.6667 -6.8718 30.9231 684
36025 1 -44.6667 -10.3077 34.359 684
