ITEM: TIMESTEP
0
ITEM: NUMBER OF ATOMS
14
ITEM: BOX BOUNDS pp pp pp
-72.1539 120.2565
-72.1539 120.2565
-72.1539 120.2565
ITEM: ATOMS id type x y z Cluster
120344 2 22.3334 22.3334 8.58975 1
120442 1 22.3334 22.3334 12.0257 1
140840 4 22.3334 25.7692 8.58975 1
140937 1 20.6154 24.0513 10.3077 1
140938 4 22.3334 25.7692 12.0257 1
205396 2 25.7692 22.3334 8.58975 1
205493 3 24.0513 20.6154 10.3077 1
205494 1 25.7692 22.3334 12.0257 1
225891 2 24.0513 24.0513 6.8718 1
225892 4 25.7692 25.7692 8.58975 1
225991 1 27.4872 24.0513 10.3077 1
226003 4 24.0513 27.4872 10.3077 1
225990 3 25.7692 25.7692 12.0257 1
226087 3 24.0513 24.0513 13.7436 1
