ITEM: TIMESTEP
0
ITEM: NUMBER OF ATOMS
8
ITEM: BOX BOUNDS pp pp pp
-120.2565 120.2565
-120.2565 120.2565
-120.2565 120.2565
ITEM: ATOMS id type x y z Cluster
74601 2 -106.5129 -24.0513 85.8975 186
74504 1 -104.79495 -22.3334 84.1795 186
74615 3 -106.5129 -20.6154 85.8975 186
74600 2 -108.2309 -22.3334 87.61545 186
74699 2 -106.5129 -24.0513 89.3334 186
74602 2 -104.79495 -22.3334 87.61545 186
74713 3 -106.5129 -20.6154 89.3334 186
74698 1 -108.2309 -22.3334 91.05135 186
