ITEM: TIMESTEP
0
ITEM: NUMBER OF ATOMS
14
ITEM: BOX BOUNDS pp pp pp
-72.1539 120.2565
-72.1539 120.2565
-72.1539 120.2565
ITEM: ATOMS id type x y z Cluster
84114 1 -70.436 104.79495 87.61545 841
84211 3 -72.1539 103.077 89.3334 841
84213 1 -68.718 103.077 89.3334 841
84225 4 -72.1539 106.5129 89.3334 841
84227 1 -68.718 106.5129 89.3334 841
84198 2 -70.436 101.35905 91.05135 841
84309 2 -72.1539 103.077 92.7693 841
84214 3 -67.0 104.79495 91.05135 841
84311 1 -68.718 103.077 92.7693 841
84323 4 -72.1539 106.5129 92.7693 841
84325 1 -68.718 106.5129 92.7693 841
84226 3 -70.436 108.2309 91.05135 841
84310 1 -70.436 104.79495 94.48725 841
350392 3 -73.8718 104.79495 91.05135 841
