ITEM: TIMESTEP
0
ITEM: NUMBER OF ATOMS
14
ITEM: BOX BOUNDS pp pp pp
-72.1539 120.2565
-72.1539 120.2565
-72.1539 120.2565
ITEM: ATOMS id type x y z Cluster
106452 3 -8.58975 -42.94875 101.35905 881
106454 3 -5.15385 -42.94875 101.35905 881
106466 4 -8.58975 -39.51285 101.35905 881
106467 1 -6.8718 -41.2308 99.6411 881
106468 2 -5.15385 -39.51285 101.35905 881
106550 4 -8.58975 -42.94875 104.79495 881
106551 3 -6.8718 -44.6667 103.077 881
106552 2 -5.15385 -42.94875 104.79495 881
106563 4 -10.3077 -41.2308 103.077 881
106564 2 -8.58975 -39.51285 104.79495 881
106566 2 -5.15385 -39.51285 104.79495 881
106567 2 -3.4359 -41.2308 103.077 881
106579 2 -6.8718 -37.7949 103.077 881
106663 4 -6.8718 -41.2308 106.5129 881
