ITEM: TIMESTEP
0
ITEM: NUMBER OF ATOMS
8
ITEM: BOX BOUNDS pp pp pp
-120.2565 120.2565
-120.2565 120.2565
-120.2565 120.2565
ITEM: ATOMS id type x y z Cluster
295114 1 1.71795 -49.82055 -91.05135 206
296402 3 1.71795 -46.38465 -91.05135 206
296403 1 3.4359 -48.1026 -92.7693 206
296404 4 5.15385 -46.38465 -91.05135 206
296499 1 0.0 -48.1026 -89.3334 206
296500 1 1.71795 -46.38465 -87.61545 206
296501 4 3.4359 -48.1026 -89.3334 206
296515 4 3.4359 -44.6667 -89.3334 206
