ITEM: TIMESTEP
0
ITEM: NUMBER OF ATOMS
14
ITEM: BOX BOUNDS pp pp pp
-72.1539 120.2565
-72.1539 120.2565
-72.1539 120.2565
ITEM: ATOMS id type x y z Cluster
19350 2 -46.38465 -60.1283 77.3078 691
19352 1 -42.94875 -60.1283 77.3078 691
19365 4 -44.6667 -58.4103 75.5898 691
19364 3 -46.38465 -56.69235 77.3078 691
19366 2 -42.94875 -56.69235 77.3078 691
19449 3 -44.6667 -61.8462 79.0257 691
19448 4 -46.38465 -60.1283 80.7436 691
19461 4 -48.1026 -58.4103 79.0257 691
19450 2 -42.94875 -60.1283 80.7436 691
19465 2 -41.2308 -58.4103 79.0257 691
19462 3 -46.38465 -56.69235 80.7436 691
19464 4 -42.94875 -56.69235 80.7436 691
19477 4 -44.6667 -54.9744 79.0257 691
19561 1 -44.6667 -58.4103 82.4616 691
