ITEM: TIMESTEP
0
ITEM: NUMBER OF ATOMS
14
ITEM: BOX BOUNDS pp pp pp
-72.1539 120.2565
-72.1539 120.2565
-72.1539 120.2565
ITEM: ATOMS id type x y z Cluster
322018 4 101.35905 46.38465 56.69235 1
323208 4 101.35905 49.82055 53.25645 1
323304 1 97.92315 49.82055 56.69235 1
323305 4 99.6411 48.1026 54.9744 1
323307 1 103.077 48.1026 54.9744 1
323308 2 104.79495 49.82055 56.69235 1
323319 4 99.6411 51.5385 54.9744 1
323320 1 101.35905 53.25645 56.69235 1
323321 1 103.077 51.5385 54.9744 1
323403 2 99.6411 48.1026 58.4103 1
323405 2 103.077 48.1026 58.4103 1
323417 2 99.6411 51.5385 58.4103 1
323419 3 103.077 51.5385 58.4103 1
323404 3 101.35905 49.82055 60.1283 1
