ITEM: TIMESTEP
0
ITEM: NUMBER OF ATOMS
14
ITEM: BOX BOUNDS pp pp pp
-72.1539 120.2565
-72.1539 120.2565
-72.1539 120.2565
ITEM: ATOMS id type x y z Cluster
281646 3 84.1795 -25.7692 84.1795 0
302044 2 84.1795 -22.3334 80.7436 0
302141 3 82.4616 -24.0513 82.4616 0
302143 4 85.8975 -24.0513 82.4616 0
302155 3 82.4616 -20.6154 82.4616 0
302157 1 85.8975 -20.6154 82.4616 0
302140 2 80.7436 -22.3334 84.1795 0
302239 3 82.4616 -24.0513 85.8975 0
302241 2 85.8975 -24.0513 85.8975 0
302144 1 87.61545 -22.3334 84.1795 0
302253 4 82.4616 -20.6154 85.8975 0
302156 4 84.1795 -18.8974 84.1795 0
302255 3 85.8975 -20.6154 85.8975 0
302240 2 84.1795 -22.3334 87.61545 0
