ITEM: TIMESTEP
0
ITEM: NUMBER OF ATOMS
14
ITEM: BOX BOUNDS pp pp pp
-72.1539 120.2565
-72.1539 120.2565
-72.1539 120.2565
ITEM: ATOMS id type x y z Cluster
56638 3 -60.1283 70.436 36.0769 0
77036 2 -60.1283 73.8718 32.641 0
77133 3 -61.8462 72.1539 34.359 0
77135 4 -58.4103 72.1539 34.359 0
77147 3 -61.8462 75.5898 34.359 0
77149 1 -58.4103 75.5898 34.359 0
77132 2 -63.5642 73.8718 36.0769 0
77231 3 -61.8462 72.1539 37.7949 0
77233 2 -58.4103 72.1539 37.7949 0
77136 1 -56.69235 73.8718 36.0769 0
77245 4 -61.8462 75.5898 37.7949 0
77148 4 -60.1283 77.3078 36.0769 0
77247 3 -58.4103 75.5898 37.7949 0
77232 2 -60.1283 73.8718 39.51285 0
