ITEM: TIMESTEP
0
ITEM: NUMBER OF ATOMS
14
ITEM: BOX BOUNDS pp pp pp
-72.1539 120.2565
-72.1539 120.2565
-72.1539 120.2565
ITEM: ATOMS id type x y z Cluster
1794 1 -70.436 -39.51285 -56.69235 647
1891 3 -72.1539 -41.2308 -54.9744 647
1893 1 -68.718 -41.2308 -54.9744 647
1905 4 -72.1539 -37.7949 -54.9744 647
1907 1 -68.718 -37.7949 -54.9744 647
1878 2 -70.436 -42.94875 -53.25645 647
1989 2 -72.1539 -41.2308 -51.5385 647
1894 3 -67.0 -39.51285 -53.25645 647
1991 1 -68.718 -41.2308 -51.5385 647
2003 4 -72.1539 -37.7949 -51.5385 647
2005 1 -68.718 -37.7949 -51.5385 647
1906 3 -70.436 -36.0769 -53.25645 647
1990 1 -70.436 -39.51285 -49.82055 647
268072 3 -73.8718 -39.51285 -53.25645 647
