ITEM: TIMESTEP
0
ITEM: NUMBER OF ATOMS
14
ITEM: BOX BOUNDS pp pp pp
-72.1539 120.2565
-72.1539 120.2565
-72.1539 120.2565
ITEM: ATOMS id type x y z Cluster
16731 1 -72.1539 -54.9744 79.0257 637
282798 2 -77.3078 -56.69235 77.3078 637
282813 4 -75.5898 -54.9744 75.5898 637
282800 2 -73.8718 -56.69235 77.3078 637
282812 2 -77.3078 -53.25645 77.3078 637
282814 3 -73.8718 -53.25645 77.3078 637
282897 3 -75.5898 -58.4103 79.0257 637
282909 2 -79.0257 -54.9744 79.0257 637
282896 2 -77.3078 -56.69235 80.7436 637
282898 2 -73.8718 -56.69235 80.7436 637
282910 1 -77.3078 -53.25645 80.7436 637
282925 1 -75.5898 -51.5385 79.0257 637
282912 4 -73.8718 -53.25645 80.7436 637
283009 3 -75.5898 -54.9744 82.4616 637
