ITEM: TIMESTEP
0
ITEM: NUMBER OF ATOMS
14
ITEM: BOX BOUNDS pp pp pp
-72.1539 120.2565
-72.1539 120.2565
-72.1539 120.2565
ITEM: ATOMS id type x y z Cluster
9391 3 -30.9231 -54.9744 13.7436 0
9475 2 -30.9231 -58.4103 17.1795 0
9487 3 -34.359 -54.9744 17.1795 0
9376 3 -32.641 -56.69235 15.4616 0
9378 3 -29.2052 -56.69235 15.4616 0
9491 1 -27.4872 -54.9744 17.1795 0
9390 2 -32.641 -53.25645 15.4616 0
9503 3 -30.9231 -51.5385 17.1795 0
9392 3 -29.2052 -53.25645 15.4616 0
9474 3 -32.641 -56.69235 18.8974 0
9587 1 -30.9231 -54.9744 20.6154 0
9476 4 -29.2052 -56.69235 18.8974 0
9488 2 -32.641 -53.25645 18.8974 0
9490 2 -29.2052 -53.25645 18.8974 0
