ITEM: TIMESTEP
0
ITEM: NUMBER OF ATOMS
14
ITEM: BOX BOUNDS pp pp pp
-72.1539 120.2565
-72.1539 120.2565
-72.1539 120.2565
ITEM: ATOMS id type x y z Cluster
289291 1 109.9488 -3.4359 -34.359 1
289192 2 108.2309 -1.71795 -36.0769 1
289194 2 111.6668 -1.71795 -36.0769 1
289290 3 108.2309 -1.71795 -32.641 1
289292 4 111.6668 -1.71795 -32.641 1
290481 3 109.9488 0.0 -37.7949 1
290577 4 106.5129 0.0 -34.359 1
290480 3 108.2309 1.71795 -36.0769 1
290482 2 111.6668 1.71795 -36.0769 1
290581 1 113.3847 0.0 -34.359 1
290593 4 109.9488 3.4359 -34.359 1
290578 4 108.2309 1.71795 -32.641 1
290677 1 109.9488 0.0 -30.9231 1
290580 4 111.6668 1.71795 -32.641 1
