ITEM: TIMESTEP
0
ITEM: NUMBER OF ATOMS
14
ITEM: BOX BOUNDS pp pp pp
-72.1539 120.2565
-72.1539 120.2565
-72.1539 120.2565
ITEM: ATOMS id type x y z Cluster
105395 4 -20.6154 -61.8462 109.9488 880
105380 1 -22.3334 -63.5642 111.6668 880
105382 3 -18.8974 -63.5642 111.6668 880
105479 3 -20.6154 -65.2821 113.3847 880
105491 1 -24.0513 -61.8462 113.3847 880
105495 2 -17.1795 -61.8462 113.3847 880
105394 4 -22.3334 -60.1283 111.6668 880
105396 4 -18.8974 -60.1283 111.6668 880
105507 1 -20.6154 -58.4103 113.3847 880
105478 3 -22.3334 -63.5642 115.1026 880
105480 3 -18.8974 -63.5642 115.1026 880
105591 1 -20.6154 -61.8462 116.8206 880
105492 3 -22.3334 -60.1283 115.1026 880
105494 3 -18.8974 -60.1283 115.1026 880
