ITEM: TIMESTEP
0
ITEM: NUMBER OF ATOMS
14
ITEM: BOX BOUNDS pp pp pp
-72.1539 120.2565
-72.1539 120.2565
-72.1539 120.2565
ITEM: ATOMS id type x y z Cluster
34722 1 -70.436 8.58975 39.51285 681
34819 3 -72.1539 6.8718 41.2308 681
34821 1 -68.718 6.8718 41.2308 681
34833 4 -72.1539 10.3077 41.2308 681
34835 1 -68.718 10.3077 41.2308 681
34806 2 -70.436 5.15385 42.94875 681
34917 2 -72.1539 6.8718 44.6667 681
34822 3 -67.0 8.58975 42.94875 681
34919 1 -68.718 6.8718 44.6667 681
34931 4 -72.1539 10.3077 44.6667 681
34933 1 -68.718 10.3077 44.6667 681
34834 3 -70.436 12.0257 42.94875 681
34918 1 -70.436 8.58975 46.38465 681
301000 3 -73.8718 8.58975 42.94875 681
