ITEM: TIMESTEP
0
ITEM: NUMBER OF ATOMS
14
ITEM: BOX BOUNDS pp pp pp
-72.1539 120.2565
-72.1539 120.2565
-72.1539 120.2565
ITEM: ATOMS id type x y z Cluster
200424 1 70.436 -22.3334 -67.0 331
264980 3 73.8718 -25.7692 -67.0 331
285378 2 73.8718 -22.3334 -70.436 331
285475 1 72.1539 -24.0513 -68.718 331
285477 1 75.5898 -24.0513 -68.718 331
285478 2 77.3078 -22.3334 -67.0 331
285489 2 72.1539 -20.6154 -68.718 331
285490 4 73.8718 -18.8974 -67.0 331
285491 3 75.5898 -20.6154 -68.718 331
285573 2 72.1539 -24.0513 -65.2821 331
285574 3 73.8718 -22.3334 -63.5642 331
285575 1 75.5898 -24.0513 -65.2821 331
285587 2 72.1539 -20.6154 -65.2821 331
285589 2 75.5898 -20.6154 -65.2821 331
