ITEM: TIMESTEP
0
ITEM: NUMBER OF ATOMS
14
ITEM: BOX BOUNDS pp pp pp
-72.1539 120.2565
-72.1539 120.2565
-72.1539 120.2565
ITEM: ATOMS id type x y z Cluster
201106 3 63.5642 -22.3334 -42.94875 0
201108 3 67.0 -22.3334 -42.94875 0
201120 1 63.5642 -18.8974 -42.94875 0
201121 2 65.2821 -20.6154 -44.6667 0
201122 3 67.0 -18.8974 -42.94875 0
201204 4 63.5642 -22.3334 -39.51285 0
201205 3 65.2821 -24.0513 -41.2308 0
201206 2 67.0 -22.3334 -39.51285 0
201217 3 61.8462 -20.6154 -41.2308 0
201218 2 63.5642 -18.8974 -39.51285 0
201220 3 67.0 -18.8974 -39.51285 0
201221 3 68.718 -20.6154 -41.2308 0
201233 3 65.2821 -17.1795 -41.2308 0
201317 2 65.2821 -20.6154 -37.7949 0
