ITEM: TIMESTEP
0
ITEM: NUMBER OF ATOMS
2000
ITEM: BOX BOUNDS pp pp pp
-120.2565 120.2565
-120.2565 120.2565
-120.2565 120.2565
ITEM: ATOMS id type x y z Cluster
401 2 -106.5129 -120.2565 -106.5129 236
304 1 -104.79495 -118.5386 -108.2309 236
415 3 -106.5129 -116.8206 -106.5129 236
400 2 -108.2309 -118.5386 -104.79495 236
499 2 -106.5129 -120.2565 -103.077 236
402 2 -104.79495 -118.5386 -104.79495 236
513 3 -106.5129 -116.8206 -103.077 236
498 1 -108.2309 -118.5386 -101.35905 236
3614 1 -94.48725 -97.92315 -91.05135 159
4902 3 -94.48725 -94.48725 -91.05135 159
4903 1 -92.7693 -96.2052 -92.7693 159
4904 4 -91.05135 -94.48725 -91.05135 159
4999 1 -96.2052 -96.2052 -89.3334 159
5000 1 -94.48725 -94.48725 -87.61545 159
5001 4 -92.7693 -96.2052 -89.3334 159
5015 4 -92.7693 -92.7693 -89.3334 159
5701 2 -106.5129 -120.2565 -58.4103 160
5604 1 -104.79495 -118.5386 -60.1283 160
5715 3 -106.5129 -116.8206 -58.4103 160
5700 2 -108.2309 -118.5386 -56.69235 160
5799 2 -106.5129 -120.2565 -54.9744 160
5702 2 -104.79495 -118.5386 -56.69235 160
5813 3 -106.5129 -116.8206 -54.9744 160
5798 1 -108.2309 -118.5386 -53.25645 160
8914 1 -94.48725 -97.92315 -42.94875 161
10202 3 -94.48725 -94.48725 -42.94875 161
10203 1 -92.7693 -96.2052 -44.6667 161
10204 4 -91.05135 -94.48725 -42.94875 161
10299 1 -96.2052 -96.2052 -41.2308 161
10300 1 -94.48725 -94.48725 -39.51285 161
10301 4 -92.7693 -96.2052 -41.2308 161
10315 4 -92.7693 -92.7693 -41.2308 161
11001 2 -106.5129 -120.2565 -10.3077 162
10904 1 -104.79495 -118.5386 -12.0257 162
11015 3 -106.5129 -116.8206 -10.3077 162
11000 2 -108.2309 -118.5386 -8.58975 162
11099 2 -106.5129 -120.2565 -6.8718 162
11002 2 -104.79495 -118.5386 -8.58975 162
11113 3 -106.5129 -116.8206 -6.8718 162
11098 1 -108.2309 -118.5386 -5.15385 162
14214 1 -94.48725 -97.92315 5.15385 163
15502 3 -94.48725 -94.48725 5.15385 163
15503 1 -92.7693 -96.2052 3.4359 163
15504 4 -91.05135 -94.48725 5.15385 163
15599 1 -96.2052 -96.2052 6.8718 163
15600 1 -94.48725 -94.48725 8.58975 163
15601 4 -92.7693 -96.2052 6.8718 163
15615 4 -92.7693 -92.7693 6.8718 163
16301 2 -106.5129 -120.2565 37.7949 164
16204 1 -104.79495 -118.5386 36.0769 164
16315 3 -106.5129 -116.8206 37.7949 164
16300 2 -108.2309 -118.5386 39.51285 164
16399 2 -106.5129 -120.2565 41.2308 164
16302 2 -104.79495 -118.5386 39.51285 164
16413 3 -106.5129 -116.8206 41.2308 164
16398 1 -108.2309 -118.5386 42.94875 164
19514 1 -94.48725 -97.92315 53.25645 165
20802 3 -94.48725 -94.48725 53.25645 165
20803 1 -92.7693 -96.2052 51.5385 165
20804 4 -91.05135 -94.48725 53.25645 165
20899 1 -96.2052 -96.2052 54.9744 165
20900 1 -94.48725 -94.48725 56.69235 165
20901 4 -92.7693 -96.2052 54.9744 165
20915 4 -92.7693 -92.7693 54.9744 165
21601 2 -106.5129 -120.2565 85.8975 166
21504 1 -104.79495 -118.5386 84.1795 166
21615 3 -106.5129 -116.8206 85.8975 166
21600 2 -108.2309 -118.5386 87.61545 166
21699 2 -106.5129 -120.2565 89.3334 166
21602 2 -104.79495 -118.5386 87.61545 166
21713 3 -106.5129 -116.8206 89.3334 166
21698 1 -108.2309 -118.5386 91.05135 166
24814 1 -94.48725 -97.92315 101.35905 167
26102 3 -94.48725 -94.48725 101.35905 167
26103 1 -92.7693 -96.2052 99.6411 167
26104 4 -91.05135 -94.48725 101.35905 167
26199 1 -96.2052 -96.2052 103.077 167
26200 1 -94.48725 -94.48725 104.79495 167
26201 4 -92.7693 -96.2052 103.077 167
26215 4 -92.7693 -92.7693 103.077 167
26901 2 -106.5129 -72.1539 -106.5129 168
26804 1 -104.79495 -70.436 -108.2309 168
26915 3 -106.5129 -68.718 -106.5129 168
26900 2 -108.2309 -70.436 -104.79495 168
26999 2 -106.5129 -72.1539 -103.077 168
26902 2 -104.79495 -70.436 -104.79495 168
27013 3 -106.5129 -68.718 -103.077 168
26998 1 -108.2309 -70.436 -101.35905 168
30114 1 -94.48725 -49.82055 -91.05135 169
31402 3 -94.48725 -46.38465 -91.05135 169
31403 1 -92.7693 -48.1026 -92.7693 169
31404 4 -91.05135 -46.38465 -91.05135 169
31499 1 -96.2052 -48.1026 -89.3334 169
31500 1 -94.48725 -46.38465 -87.61545 169
31501 4 -92.7693 -48.1026 -89.3334 169
31515 4 -92.7693 -44.6667 -89.3334 169
32201 2 -106.5129 -72.1539 -58.4103 170
32104 1 -104.79495 -70.436 -60.1283 170
32215 3 -106.5129 -68.718 -58.4103 170
32200 2 -108.2309 -70.436 -56.69235 170
32299 2 -106.5129 -72.1539 -54.9744 170
32202 2 -104.79495 -70.436 -56.69235 170
32313 3 -106.5129 -68.718 -54.9744 170
32298 1 -108.2309 -70.436 -53.25645 170
35414 1 -94.48725 -49.82055 -42.94875 171
36702 3 -94.48725 -46.38465 -42.94875 171
36703 1 -92.7693 -48.1026 -44.6667 171
36704 4 -91.05135 -46.38465 -42.94875 171
36799 1 -96.2052 -48.1026 -41.2308 171
36800 1 -94.48725 -46.38465 -39.51285 171
36801 4 -92.7693 -48.1026 -41.2308 171
36815 4 -92.7693 -44.6667 -41.2308 171
37501 2 -106.5129 -72.1539 -10.3077 172
37404 1 -104.79495 -70.436 -12.0257 172
37515 3 -106.5129 -68.718 -10.3077 172
37500 2 -108.2309 -70.436 -8.58975 172
37599 2 -106.5129 -72.1539 -6.8718 172
37502 2 -104.79495 -70.436 -8.58975 172
37613 3 -106.5129 -68.718 -6.8718 172
37598 1 -108.2309 -70.436 -5.15385 172
40714 1 -94.48725 -49.82055 5.15385 173
42002 3 -94.48725 -46.38465 5.15385 173
42003 1 -92.7693 -48.1026 3.4359 173
42004 4 -91.05135 -46.38465 5.15385 173
42099 1 -96.2052 -48.1026 6.8718 173
42100 1 -94.48725 -46.38465 8.58975 173
42101 4 -92.7693 -48.1026 6.8718 173
42115 4 -92.7693 -44.6667 6.8718 173
42801 2 -106.5129 -72.1539 37.7949 158
42704 1 -104.79495 -70.436 36.0769 158
42815 3 -106.5129 -68.718 37.7949 158
42800 2 -108.2309 -70.436 39.51285 158
42899 2 -106.5129 -72.1539 41.2308 158
42802 2 -104.79495 -70.436 39.51285 158
42913 3 -106.5129 -68.718 41.2308 158
42898 1 -108.2309 -70.436 42.94875 158
46014 1 -94.48725 -49.82055 53.25645 175
47302 3 -94.48725 -46.38465 53.25645 175
47303 1 -92.7693 -48.1026 51.5385 175
47304 4 -91.05135 -46.38465 53.25645 175
47399 1 -96.2052 -48.1026 54.9744 175
47400 1 -94.48725 -46.38465 56.69235 175
47401 4 -92.7693 -48.1026 54.9744 175
47415 4 -92.7693 -44.6667 54.9744 175
48101 2 -106.5129 -72.1539 85.8975 176
48004 1 -104.79495 -70.436 84.1795 176
48115 3 -106.5129 -68.718 85.8975 176
48100 2 -108.2309 -70.436 87.61545 176
48199 2 -106.5129 -72.1539 89.3334 176
48102 2 -104.79495 -70.436 87.61545 176
48213 3 -106.5129 -68.718 89.3334 176
48198 1 -108.2309 -70.436 91.05135 176
51314 1 -94.48725 -49.82055 101.35905 177
52602 3 -94.48725 -46.38465 101.35905 177
52603 1 -92.7693 -48.1026 99.6411 177
52604 4 -91.05135 -46.38465 101.35905 177
52699 1 -96.2052 -48.1026 103.077 177
52700 1 -94.48725 -46.38465 104.79495 177
52701 4 -92.7693 -48.1026 103.077 177
52715 4 -92.7693 -44.6667 103.077 177
53401 2 -106.5129 -24.0513 -106.5129 178
53304 1 -104.79495 -22.3334 -108.2309 178
53415 3 -106.5129 -20.6154 -106.5129 178
53400 2 -108.2309 -22.3334 -104.79495 178
53499 2 -106.5129 -24.0513 -103.077 178
53402 2 -104.79495 -22.3334 -104.79495 178
53513 3 -106.5129 -20.6154 -103.077 178
53498 1 -108.2309 -22.3334 -101.35905 178
56614 1 -94.48725 -1.71795 -91.05135 179
57902 3 -94.48725 1.71795 -91.05135 179
57903 1 -92.7693 0.0 -92.7693 179
57904 4 -91.05135 1.71795 -91.05135 179
57999 1 -96.2052 0.0 -89.3334 179
58000 1 -94.48725 1.71795 -87.61545 179
58001 4 -92.7693 0.0 -89.3334 179
58015 4 -92.7693 3.4359 -89.3334 179
58701 2 -106.5129 -24.0513 -58.4103 180
58604 1 -104.79495 -22.3334 -60.1283 180
58715 3 -106.5129 -20.6154 -58.4103 180
58700 2 -108.2309 -22.3334 -56.69235 180
58799 2 -106.5129 -24.0513 -54.9744 180
58702 2 -104.79495 -22.3334 -56.69235 180
58813 3 -106.5129 -20.6154 -54.9744 180
58798 1 -108.2309 -22.3334 -53.25645 180
61914 1 -94.48725 -1.71795 -42.94875 181
63202 3 -94.48725 1.71795 -42.94875 181
63203 1 -92.7693 0.0 -44.6667 181
63204 4 -91.05135 1.71795 -42.94875 181
63299 1 -96.2052 0.0 -41.2308 181
63300 1 -94.48725 1.71795 -39.51285 181
63301 4 -92.7693 0.0 -41.2308 181
63315 4 -92.7693 3.4359 -41.2308 181
64001 2 -106.5129 -24.0513 -10.3077 182
63904 1 -104.79495 -22.3334 -12.0257 182
64015 3 -106.5129 -20.6154 -10.3077 182
64000 2 -108.2309 -22.3334 -8.58975 182
64099 2 -106.5129 -24.0513 -6.8718 182
64002 2 -104.79495 -22.3334 -8.58975 182
64113 3 -106.5129 -20.6154 -6.8718 182
64098 1 -108.2309 -22.3334 -5.15385 182
67214 1 -94.48725 -1.71795 5.15385 183
68502 3 -94.48725 1.71795 5.15385 183
68503 1 -92.7693 0.0 3.4359 183
68504 4 -91.05135 1.71795 5.15385 183
68599 1 -96.2052 0.0 6.8718 183
68600 1 -94.48725 1.71795 8.58975 183
68601 4 -92.7693 0.0 6.8718 183
68615 4 -92.7693 3.4359 6.8718 183
69301 2 -106.5129 -24.0513 37.7949 184
69204 1 -104.79495 -22.3334 36.0769 184
69315 3 -106.5129 -20.6154 37.7949 184
69300 2 -108.2309 -22.3334 39.51285 184
69399 2 -106.5129 -24.0513 41.2308 184
69302 2 -104.79495 -22.3334 39.51285 184
69413 3 -106.5129 -20.6154 41.2308 184
69398 1 -108.2309 -22.3334 42.94875 184
72514 1 -94.48725 -1.71795 53.25645 185
73802 3 -94.48725 1.71795 53.25645 185
73803 1 -92.7693 0.0 51.5385 185
73804 4 -91.05135 1.71795 53.25645 185
73899 1 -96.2052 0.0 54.9744 185
73900 1 -94.48725 1.71795 56.69235 185
73901 4 -92.7693 0.0 54.9744 185
73915 4 -92.7693 3.4359 54.9744 185
74601 2 -106.5129 -24.0513 85.8975 186
74504 1 -104.79495 -22.3334 84.1795 186
74615 3 -106.5129 -20.6154 85.8975 186
74600 2 -108.2309 -22.3334 87.61545 186
74699 2 -106.5129 -24.0513 89.3334 186
74602 2 -104.79495 -22.3334 87.61545 186
74713 3 -106.5129 -20.6154 89.3334 186
74698 1 -108.2309 -22.3334 91.05135 186
77814 1 -94.48725 -1.71795 101.35905 187
79102 3 -94.48725 1.71795 101.35905 187
79103 1 -92.7693 0.0 99.6411 187
79104 4 -91.05135 1.71795 101.35905 187
79199 1 -96.2052 0.0 103.077 187
79200 1 -94.48725 1.71795 104.79495 187
79201 4 -92.7693 0.0 103.077 187
79215 4 -92.7693 3.4359 103.077 187
79901 2 -106.5129 24.0513 -106.5129 188
79804 1 -104.79495 25.7692 -108.2309 188
79915 3 -106.5129 27.4872 -106.5129 188
79900 2 -108.2309 25.7692 -104.79495 188
79999 2 -106.5129 24.0513 -103.077 188
79902 2 -104.79495 25.7692 -104.79495 188
80013 3 -106.5129 27.4872 -103.077 188
79998 1 -108.2309 25.7692 -101.35905 188
83114 1 -94.48725 46.38465 -91.05135 142
84402 3 -94.48725 49.82055 -91.05135 142
84403 1 -92.7693 48.1026 -92.7693 142
84404 4 -91.05135 49.82055 -91.05135 142
84499 1 -96.2052 48.1026 -89.3334 142
84500 1 -94.48725 49.82055 -87.61545 142
84501 4 -92.7693 48.1026 -89.3334 142
84515 4 -92.7693 51.5385 -89.3334 142
85201 2 -106.5129 24.0513 -58.4103 127
85104 1 -104.79495 25.7692 -60.1283 127
85215 3 -106.5129 27.4872 -58.4103 127
85200 2 -108.2309 25.7692 -56.69235 127
85299 2 -106.5129 24.0513 -54.9744 127
85202 2 -104.79495 25.7692 -56.69235 127
85313 3 -106.5129 27.4872 -54.9744 127
85298 1 -108.2309 25.7692 -53.25645 127
88414 1 -94.48725 46.38465 -42.94875 128
89702 3 -94.48725 49.82055 -42.94875 128
89703 1 -92.7693 48.1026 -44.6667 128
89704 4 -91.05135 49.82055 -42.94875 128
89799 1 -96.2052 48.1026 -41.2308 128
89800 1 -94.48725 49.82055 -39.51285 128
89801 4 -92.7693 48.1026 -41.2308 128
89815 4 -92.7693 51.5385 -41.2308 128
90501 2 -106.5129 24.0513 -10.3077 129
90404 1 -104.79495 25.7692 -12.0257 129
90515 3 -106.5129 27.4872 -10.3077 129
90500 2 -108.2309 25.7692 -8.58975 129
90599 2 -106.5129 24.0513 -6.8718 129
90502 2 -104.79495 25.7692 -8.58975 129
90613 3 -106.5129 27.4872 -6.8718 129
90598 1 -108.2309 25.7692 -5.15385 129
93714 1 -94.48725 46.38465 5.15385 130
95002 3 -94.48725 49.82055 5.15385 130
95003 1 -92.7693 48.1026 3.4359 130
95004 4 -91.05135 49.82055 5.15385 130
95099 1 -96.2052 48.1026 6.8718 130
95100 1 -94.48725 49.82055 8.58975 130
95101 4 -92.7693 48.1026 6.8718 130
95115 4 -92.7693 51.5385 6.8718 130
95801 2 -106.5129 24.0513 37.7949 131
95704 1 -104.79495 25.7692 36.0769 131
95815 3 -106.5129 27.4872 37.7949 131
95800 2 -108.2309 25.7692 39.51285 131
95899 2 -106.5129 24.0513 41.2308 131
95802 2 -104.79495 25.7692 39.51285 131
95913 3 -106.5129 27.4872 41.2308 131
95898 1 -108.2309 25.7692 42.94875 131
99014 1 -94.48725 46.38465 53.25645 132
100302 3 -94.48725 49.82055 53.25645 132
100303 1 -92.7693 48.1026 51.5385 132
100304 4 -91.05135 49.82055 53.25645 132
100399 1 -96.2052 48.1026 54.9744 132
100400 1 -94.48725 49.82055 56.69235 132
100401 4 -92.7693 48.1026 54.9744 132
100415 4 -92.7693 51.5385 54.9744 132
101101 2 -106.5129 24.0513 85.8975 133
101004 1 -104.79495 25.7692 84.1795 133
101115 3 -106.5129 27.4872 85.8975 133
101100 2 -108.2309 25.7692 87.61545 133
101199 2 -106.5129 24.0513 89.3334 133
101102 2 -104.79495 25.7692 87.61545 133
101213 3 -106.5129 27.4872 89.3334 133
101198 1 -108.2309 25.7692 91.05135 133
104314 1 -94.48725 46.38465 101.35905 134
105602 3 -94.48725 49.82055 101.35905 134
105603 1 -92.7693 48.1026 99.6411 134
105604 4 -91.05135 49.82055 101.35905 134
105699 1 -96.2052 48.1026 103.077 134
105700 1 -94.48725 49.82055 104.79495 134
105701 4 -92.7693 48.1026 103.077 134
105715 4 -92.7693 51.5385 103.077 134
106401 2 -106.5129 72.1539 -106.5129 135
106304 1 -104.79495 73.8718 -108.2309 135
106415 3 -106.5129 75.5898 -106.5129 135
106400 2 -108.2309 73.8718 -104.79495 135
106499 2 -106.5129 72.1539 -103.077 135
106402 2 -104.79495 73.8718 -104.79495 135
106513 3 -106.5129 75.5898 -103.077 135
106498 1 -108.2309 73.8718 -101.35905 135
109614 1 -94.48725 94.48725 -91.05135 136
110902 3 -94.48725 97.92315 -91.05135 136
110903 1 -92.7693 96.2052 -92.7693 136
110904 4 -91.05135 97.92315 -91.05135 136
110999 1 -96.2052 96.2052 -89.3334 136
111000 1 -94.48725 97.92315 -87.61545 136
111001 4 -92.7693 96.2052 -89.3334 136
111015 4 -92.7693 99.6411 -89.3334 136
111701 2 -106.5129 72.1539 -58.4103 137
111604 1 -104.79495 73.8718 -60.1283 137
111715 3 -106.5129 75.5898 -58.4103 137
111700 2 -108.2309 73.8718 -56.69235 137
111799 2 -106.5129 72.1539 -54.9744 137
111702 2 -104.79495 73.8718 -56.69235 137
111813 3 -106.5129 75.5898 -54.9744 137
111798 1 -108.2309 73.8718 -53.25645 137
114914 1 -94.48725 94.48725 -42.94875 138
116202 3 -94.48725 97.92315 -42.94875 138
116203 1 -92.7693 96.2052 -44.6667 138
116204 4 -91.05135 97.92315 -42.94875 138
116299 1 -96.2052 96.2052 -41.2308 138
116300 1 -94.48725 97.92315 -39.51285 138
116301 4 -92.7693 96.2052 -41.2308 138
116315 4 -92.7693 99.6411 -41.2308 138
117001 2 -106.5129 72.1539 -10.3077 139
116904 1 -104.79495 73.8718 -12.0257 139
117015 3 -106.5129 75.5898 -10.3077 139
117000 2 -108.2309 73.8718 -8.58975 139
117099 2 -106.5129 72.1539 -6.8718 139
117002 2 -104.79495 73.8718 -8.58975 139
117113 3 -106.5129 75.5898 -6.8718 139
117098 1 -108.2309 73.8718 -5.15385 139
120214 1 -94.48725 94.48725 5.15385 140
121502 3 -94.48725 97.92315 5.15385 140
121503 1 -92.7693 96.2052 3.4359 140
121504 4 -91.05135 97.92315 5.15385 140
121599 1 -96.2052 96.2052 6.8718 140
121600 1 -94.48725 97.92315 8.58975 140
121601 4 -92.7693 96.2052 6.8718 140
121615 4 -92.7693 99.6411 6.8718 140
122301 2 -106.5129 72.1539 37.7949 141
122204 1 -104.79495 73.8718 36.0769 141
122315 3 -106.5129 75.5898 37.7949 141
122300 2 -108.2309 73.8718 39.51285 141
122399 2 -106.5129 72.1539 41.2308 141
122302 2 -104.79495 73.8718 39.51285 141
122413 3 -106.5129 75.5898 41.2308 141
122398 1 -108.2309 73.8718 42.94875 141
125514 1 -94.48725 94.48725 53.25645 126
126802 3 -94.48725 97.92315 53.25645 126
126803 1 -92.7693 96.2052 51.5385 126
126804 4 -91.05135 97.92315 53.25645 126
126899 1 -96.2052 96.2052 54.9744 126
126900 1 -94.48725 97.92315 56.69235 126
126901 4 -92.7693 96.2052 54.9744 126
126915 4 -92.7693 99.6411 54.9744 126
127601 2 -106.5129 72.1539 85.8975 143
127504 1 -104.79495 73.8718 84.1795 143
127615 3 -106.5129 75.5898 85.8975 143
127600 2 -108.2309 73.8718 87.61545 143
127699 2 -106.5129 72.1539 89.3334 143
127602 2 -104.79495 73.8718 87.61545 143
127713 3 -106.5129 75.5898 89.3334 143
127698 1 -108.2309 73.8718 91.05135 143
130814 1 -94.48725 94.48725 101.35905 144
132102 3 -94.48725 97.92315 101.35905 144
132103 1 -92.7693 96.2052 99.6411 144
132104 4 -91.05135 97.92315 101.35905 144
132199 1 -96.2052 96.2052 103.077 144
132200 1 -94.48725 97.92315 104.79495 144
132201 4 -92.7693 96.2052 103.077 144
132215 4 -92.7693 99.6411 103.077 144
132901 2 -58.4103 -120.2565 -106.5129 145
132804 1 -56.69235 -118.5386 -108.2309 145
132915 3 -58.4103 -116.8206 -106.5129 145
132900 2 -60.1283 -118.5386 -104.79495 145
132999 2 -58.4103 -120.2565 -103.077 145
132902 2 -56.69235 -118.5386 -104.79495 145
133013 3 -58.4103 -116.8206 -103.077 145
132998 1 -60.1283 -118.5386 -101.35905 145
136114 1 -46.38465 -97.92315 -91.05135 146
137402 3 -46.38465 -94.48725 -91.05135 146
137403 1 -44.6667 -96.2052 -92.7693 146
137404 4 -42.94875 -94.48725 -91.05135 146
137499 1 -48.1026 -96.2052 -89.3334 146
137500 1 -46.38465 -94.48725 -87.61545 146
137501 4 -44.6667 -96.2052 -89.3334 146
137515 4 -44.6667 -92.7693 -89.3334 146
138201 2 -58.4103 -120.2565 -58.4103 147
138104 1 -56.69235 -118.5386 -60.1283 147
138215 3 -58.4103 -116.8206 -58.4103 147
138200 2 -60.1283 -118.5386 -56.69235 147
138299 2 -58.4103 -120.2565 -54.9744 147
138202 2 -56.69235 -118.5386 -56.69235 147
138313 3 -58.4103 -116.8206 -54.9744 147
138298 1 -60.1283 -118.5386 -53.25645 147
141414 1 -46.38465 -97.92315 -42.94875 148
142702 3 -46.38465 -94.48725 -42.94875 148
142703 1 -44.6667 -96.2052 -44.6667 148
142704 4 -42.94875 -94.48725 -42.94875 148
142799 1 -48.1026 -96.2052 -41.2308 148
142800 1 -46.38465 -94.48725 -39.51285 148
142801 4 -44.6667 -96.2052 -41.2308 148
142815 4 -44.6667 -92.7693 -41.2308 148
143501 2 -58.4103 -120.2565 -10.3077 149
143404 1 -56.69235 -118.5386 -12.0257 149
143515 3 -58.4103 -116.8206 -10.3077 149
143500 2 -60.1283 -118.5386 -8.58975 149
143599 2 -58.4103 -120.2565 -6.8718 149
143502 2 -56.69235 -118.5386 -8.58975 149
143613 3 -58.4103 -116.8206 -6.8718 149
143598 1 -60.1283 -118.5386 -5.15385 149
146714 1 -46.38465 -97.92315 5.15385 150
148002 3 -46.38465 -94.48725 5.15385 150
148003 1 -44.6667 -96.2052 3.4359 150
148004 4 -42.94875 -94.48725 5.15385 150
148099 1 -48.1026 -96.2052 6.8718 150
148100 1 -46.38465 -94.48725 8.58975 150
148101 4 -44.6667 -96.2052 6.8718 150
148115 4 -44.6667 -92.7693 6.8718 150
148801 2 -58.4103 -120.2565 37.7949 151
148704 1 -56.69235 -118.5386 36.0769 151
148815 3 -58.4103 -116.8206 37.7949 151
148800 2 -60.1283 -118.5386 39.51285 151
148899 2 -58.4103 -120.2565 41.2308 151
148802 2 -56.69235 -118.5386 39.51285 151
148913 3 -58.4103 -116.8206 41.2308 151
148898 1 -60.1283 -118.5386 42.94875 151
152014 1 -46.38465 -97.92315 53.25645 152
153302 3 -46.38465 -94.48725 53.25645 152
153303 1 -44.6667 -96.2052 51.5385 152
153304 4 -42.94875 -94.48725 53.25645 152
153399 1 -48.1026 -96.2052 54.9744 152
153400 1 -46.38465 -94.48725 56.69235 152
153401 4 -44.6667 -96.2052 54.9744 152
153415 4 -44.6667 -92.7693 54.9744 152
154101 2 -58.4103 -120.2565 85.8975 153
154004 1 -56.69235 -118.5386 84.1795 153
154115 3 -58.4103 -116.8206 85.8975 153
154100 2 -60.1283 -118.5386 87.61545 153
154199 2 -58.4103 -120.2565 89.3334 153
154102 2 -56.69235 -118.5386 87.61545 153
154213 3 -58.4103 -116.8206 89.3334 153
154198 1 -60.1283 -118.5386 91.05135 153
157314 1 -46.38465 -97.92315 101.35905 154
158602 3 -46.38465 -94.48725 101.35905 154
158603 1 -44.6667 -96.2052 99.6411 154
158604 4 -42.94875 -94.48725 101.35905 154
158699 1 -48.1026 -96.2052 103.077 154
158700 1 -46.38465 -94.48725 104.79495 154
158701 4 -44.6667 -96.2052 103.077 154
158715 4 -44.6667 -92.7693 103.077 154
159401 2 -58.4103 -72.1539 -106.5129 155
159304 1 -56.69235 -70.436 -108.2309 155
159415 3 -58.4103 -68.718 -106.5129 155
159400 2 -60.1283 -70.436 -104.79495 155
159499 2 -58.4103 -72.1539 -103.077 155
159402 2 -56.69235 -70.436 -104.79495 155
159513 3 -58.4103 -68.718 -103.077 155
159498 1 -60.1283 -70.436 -101.35905 155
162614 1 -46.38465 -49.82055 -91.05135 156
163902 3 -46.38465 -46.38465 -91.05135 156
163903 1 -44.6667 -48.1026 -92.7693 156
163904 4 -42.94875 -46.38465 -91.05135 156
163999 1 -48.1026 -48.1026 -89.3334 156
164000 1 -46.38465 -46.38465 -87.61545 156
164001 4 -44.6667 -48.1026 -89.3334 156
164015 4 -44.6667 -44.6667 -89.3334 156
164701 2 -58.4103 -72.1539 -58.4103 157
164604 1 -56.69235 -70.436 -60.1283 157
164715 3 -58.4103 -68.718 -58.4103 157
164700 2 -60.1283 -70.436 -56.69235 157
164799 2 -58.4103 -72.1539 -54.9744 157
164702 2 -56.69235 -70.436 -56.69235 157
164813 3 -58.4103 -68.718 -54.9744 157
164798 1 -60.1283 -70.436 -53.25645 157
167914 1 -46.38465 -49.82055 -42.94875 174
169202 3 -46.38465 -46.38465 -42.94875 174
169203 1 -44.6667 -48.1026 -44.6667 174
169204 4 -42.94875 -46.38465 -42.94875 174
169299 1 -48.1026 -48.1026 -41.2308 174
169300 1 -46.38465 -46.38465 -39.51285 174
169301 4 -44.6667 -48.1026 -41.2308 174
169315 4 -44.6667 -44.6667 -41.2308 174
170001 2 -58.4103 -72.1539 -10.3077 221
169904 1 -56.69235 -70.436 -12.0257 221
170015 3 -58.4103 -68.718 -10.3077 221
170000 2 -60.1283 -70.436 -8.58975 221
170099 2 -58.4103 -72.1539 -6.8718 221
170002 2 -56.69235 -70.436 -8.58975 221
170113 3 -58.4103 -68.718 -6.8718 221
170098 1 -60.1283 -70.436 -5.15385 221
173214 1 -46.38465 -49.82055 5.15385 222
174502 3 -46.38465 -46.38465 5.15385 222
174503 1 -44.6667 -48.1026 3.4359 222
174504 4 -42.94875 -46.38465 5.15385 222
174599 1 -48.1026 -48.1026 6.8718 222
174600 1 -46.38465 -46.38465 8.58975 222
174601 4 -44.6667 -48.1026 6.8718 222
174615 4 -44.6667 -44.6667 6.8718 222
175301 2 -58.4103 -72.1539 37.7949 223
175204 1 -56.69235 -70.436 36.0769 223
175315 3 -58.4103 -68.718 37.7949 223
175300 2 -60.1283 -70.436 39.51285 223
175399 2 -58.4103 -72.1539 41.2308 223
175302 2 -56.69235 -70.436 39.51285 223
175413 3 -58.4103 -68.718 41.2308 223
175398 1 -60.1283 -70.436 42.94875 223
178514 1 -46.38465 -49.82055 53.25645 224
179802 3 -46.38465 -46.38465 53.25645 224
179803 1 -44.6667 -48.1026 51.5385 224
179804 4 -42.94875 -46.38465 53.25645 224
179899 1 -48.1026 -48.1026 54.9744 224
179900 1 -46.38465 -46.38465 56.69235 224
179901 4 -44.6667 -48.1026 54.9744 224
179915 4 -44.6667 -44.6667 54.9744 224
180601 2 -58.4103 -72.1539 85.8975 225
180504 1 -56.69235 -70.436 84.1795 225
180615 3 -58.4103 -68.718 85.8975 225
180600 2 -60.1283 -70.436 87.61545 225
180699 2 -58.4103 -72.1539 89.3334 225
180602 2 -56.69235 -70.436 87.61545 225
180713 3 -58.4103 -68.718 89.3334 225
180698 1 -60.1283 -70.436 91.05135 225
183814 1 -46.38465 -49.82055 101.35905 226
185102 3 -46.38465 -46.38465 101.35905 226
185103 1 -44.6667 -48.1026 99.6411 226
185104 4 -42.94875 -46.38465 101.35905 226
185199 1 -48.1026 -48.1026 103.077 226
185200 1 -46.38465 -46.38465 104.79495 226
185201 4 -44.6667 -48.1026 103.077 226
185215 4 -44.6667 -44.6667 103.077 226
185901 2 -58.4103 -24.0513 -106.5129 227
185804 1 -56.69235 -22.3334 -108.2309 227
185915 3 -58.4103 -20.6154 -106.5129 227
185900 2 -60.1283 -22.3334 -104.79495 227
185999 2 -58.4103 -24.0513 -103.077 227
185902 2 -56.69235 -22.3334 -104.79495 227
186013 3 -58.4103 -20.6154 -103.077 227
185998 1 -60.1283 -22.3334 -101.35905 227
189114 1 -46.38465 -1.71795 -91.05135 228
190402 3 -46.38465 1.71795 -91.05135 228
190403 1 -44.6667 0.0 -92.7693 228
190404 4 -42.94875 1.71795 -91.05135 228
190499 1 -48.1026 0.0 -89.3334 228
190500 1 -46.38465 1.71795 -87.61545 228
190501 4 -44.6667 0.0 -89.3334 228
190515 4 -44.6667 3.4359 -89.3334 228
191201 2 -58.4103 -24.0513 -58.4103 229
191104 1 -56.69235 -22.3334 -60.1283 229
191215 3 -58.4103 -20.6154 -58.4103 229
191200 2 -60.1283 -22.3334 -56.69235 229
191299 2 -58.4103 -24.0513 -54.9744 229
191202 2 -56.69235 -22.3334 -56.69235 229
191313 3 -58.4103 -20.6154 -54.9744 229
191298 1 -60.1283 -22.3334 -53.25645 229
194414 1 -46.38465 -1.71795 -42.94875 230
195702 3 -46.38465 1.71795 -42.94875 230
195703 1 -44.6667 0.0 -44.6667 230
195704 4 -42.94875 1.71795 -42.94875 230
195799 1 -48.1026 0.0 -41.2308 230
195800 1 -46.38465 1.71795 -39.51285 230
195801 4 -44.6667 0.0 -41.2308 230
195815 4 -44.6667 3.4359 -41.2308 230
196501 2 -58.4103 -24.0513 -10.3077 231
196404 1 -56.69235 -22.3334 -12.0257 231
196515 3 -58.4103 -20.6154 -10.3077 231
196500 2 -60.1283 -22.3334 -8.58975 231
196599 2 -58.4103 -24.0513 -6.8718 231
196502 2 -56.69235 -22.3334 -8.58975 231
196613 3 -58.4103 -20.6154 -6.8718 231
196598 1 -60.1283 -22.3334 -5.15385 231
199714 1 -46.38465 -1.71795 5.15385 232
201002 3 -46.38465 1.71795 5.15385 232
201003 1 -44.6667 0.0 3.4359 232
201004 4 -42.94875 1.71795 5.15385 232
201099 1 -48.1026 0.0 6.8718 232
201100 1 -46.38465 1.71795 8.58975 232
201101 4 -44.6667 0.0 6.8718 232
201115 4 -44.6667 3.4359 6.8718 232
201801 2 -58.4103 -24.0513 37.7949 233
201704 1 -56.69235 -22.3334 36.0769 233
201815 3 -58.4103 -20.6154 37.7949 233
201800 2 -60.1283 -22.3334 39.51285 233
201899 2 -58.4103 -24.0513 41.2308 233
201802 2 -56.69235 -22.3334 39.51285 233
201913 3 -58.4103 -20.6154 41.2308 233
201898 1 -60.1283 -22.3334 42.94875 233
205014 1 -46.38465 -1.71795 53.25645 234
206302 3 -46.38465 1.71795 53.25645 234
206303 1 -44.6667 0.0 51.5385 234
206304 4 -42.94875 1.71795 53.25645 234
206399 1 -48.1026 0.0 54.9744 234
206400 1 -46.38465 1.71795 56.69235 234
206401 4 -44.6667 0.0 54.9744 234
206415 4 -44.6667 3.4359 54.9744 234
207101 2 -58.4103 -24.0513 85.8975 235
207004 1 -56.69235 -22.3334 84.1795 235
207115 3 -58.4103 -20.6154 85.8975 235
207100 2 -60.1283 -22.3334 87.61545 235
207199 2 -58.4103 -24.0513 89.3334 235
207102 2 -56.69235 -22.3334 87.61545 235
207213 3 -58.4103 -20.6154 89.3334 235
207198 1 -60.1283 -22.3334 91.05135 235
210314 1 -46.38465 -1.71795 101.35905 220
211602 3 -46.38465 1.71795 101.35905 220
211603 1 -44.6667 0.0 99.6411 220
211604 4 -42.94875 1.71795 101.35905 220
211699 1 -48.1026 0.0 103.077 220
211700 1 -46.38465 1.71795 104.79495 220
211701 4 -44.6667 0.0 103.077 220
211715 4 -44.6667 3.4359 103.077 220
212401 2 -58.4103 24.0513 -106.5129 237
212304 1 -56.69235 25.7692 -108.2309 237
212415 3 -58.4103 27.4872 -106.5129 237
212400 2 -60.1283 25.7692 -104.79495 237
212499 2 -58.4103 24.0513 -103.077 237
212402 2 -56.69235 25.7692 -104.79495 237
212513 3 -58.4103 27.4872 -103.077 237
212498 1 -60.1283 25.7692 -101.35905 237
215614 1 -46.38465 46.38465 -91.05135 238
216902 3 -46.38465 49.82055 -91.05135 238
216903 1 -44.6667 48.1026 -92.7693 238
216904 4 -42.94875 49.82055 -91.05135 238
216999 1 -48.1026 48.1026 -89.3334 238
217000 1 -46.38465 49.82055 -87.61545 238
217001 4 -44.6667 48.1026 -89.3334 238
217015 4 -44.6667 51.5385 -89.3334 238
217701 2 -58.4103 24.0513 -58.4103 239
217604 1 -56.69235 25.7692 -60.1283 239
217715 3 -58.4103 27.4872 -58.4103 239
217700 2 -60.1283 25.7692 -56.69235 239
217799 2 -58.4103 24.0513 -54.9744 239
217702 2 -56.69235 25.7692 -56.69235 239
217813 3 -58.4103 27.4872 -54.9744 239
217798 1 -60.1283 25.7692 -53.25645 239
220914 1 -46.38465 46.38465 -42.94875 240
222202 3 -46.38465 49.82055 -42.94875 240
222203 1 -44.6667 48.1026 -44.6667 240
222204 4 -42.94875 49.82055 -42.94875 240
222299 1 -48.1026 48.1026 -41.2308 240
222300 1 -46.38465 49.82055 -39.51285 240
222301 4 -44.6667 48.1026 -41.2308 240
222315 4 -44.6667 51.5385 -41.2308 240
223001 2 -58.4103 24.0513 -10.3077 241
222904 1 -56.69235 25.7692 -12.0257 241
223015 3 -58.4103 27.4872 -10.3077 241
223000 2 -60.1283 25.7692 -8.58975 241
223099 2 -58.4103 24.0513 -6.8718 241
223002 2 -56.69235 25.7692 -8.58975 241
223113 3 -58.4103 27.4872 -6.8718 241
223098 1 -60.1283 25.7692 -5.15385 241
226214 1 -46.38465 46.38465 5.15385 242
227502 3 -46.38465 49.82055 5.15385 242
227503 1 -44.6667 48.1026 3.4359 242
227504 4 -42.94875 49.82055 5.15385 242
227599 1 -48.1026 48.1026 6.8718 242
227600 1 -46.38465 49.82055 8.58975 242
227601 4 -44.6667 48.1026 6.8718 242
227615 4 -44.6667 51.5385 6.8718 242
228301 2 -58.4103 24.0513 37.7949 243
228204 1 -56.69235 25.7692 36.0769 243
228315 3 -58.4103 27.4872 37.7949 243
228300 2 -60.1283 25.7692 39.51285 243
228399 2 -58.4103 24.0513 41.2308 243
228302 2 -56.69235 25.7692 39.51285 243
228413 3 -58.4103 27.4872 41.2308 243
228398 1 -60.1283 25.7692 42.94875 243
231514 1 -46.38465 46.38465 53.25645 244
232802 3 -46.38465 49.82055 53.25645 244
232803 1 -44.6667 48.1026 51.5385 244
232804 4 -42.94875 49.82055 53.25645 244
232899 1 -48.1026 48.1026 54.9744 244
232900 1 -46.38465 49.82055 56.69235 244
232901 4 -44.6667 48.1026 54.9744 244
232915 4 -44.6667 51.5385 54.9744 244
233601 2 -58.4103 24.0513 85.8975 245
233504 1 -56.69235 25.7692 84.1795 245
233615 3 -58.4103 27.4872 85.8975 245
233600 2 -60.1283 25.7692 87.61545 245
233699 2 -58.4103 24.0513 89.3334 245
233602 2 -56.69235 25.7692 87.61545 245
233713 3 -58.4103 27.4872 89.3334 245
233698 1 -60.1283 25.7692 91.05135 245
236814 1 -46.38465 46.38465 101.35905 246
238102 3 -46.38465 49.82055 101.35905 246
238103 1 -44.6667 48.1026 99.6411 246
238104 4 -42.94875 49.82055 101.35905 246
238199 1 -48.1026 48.1026 103.077 246
238200 1 -46.38465 49.82055 104.79495 246
238201 4 -44.6667 48.1026 103.077 246
238215 4 -44.6667 51.5385 103.077 246
238901 2 -58.4103 72.1539 -106.5129 247
238804 1 -56.69235 73.8718 -108.2309 247
238915 3 -58.4103 75.5898 -106.5129 247
238900 2 -60.1283 73.8718 -104.79495 247
238999 2 -58.4103 72.1539 -103.077 247
238902 2 -56.69235 73.8718 -104.79495 247
239013 3 -58.4103 75.5898 -103.077 247
238998 1 -60.1283 73.8718 -101.35905 247
242114 1 -46.38465 94.48725 -91.05135 248
243402 3 -46.38465 97.92315 -91.05135 248
243403 1 -44.6667 96.2052 -92.7693 248
243404 4 -42.94875 97.92315 -91.05135 248
243499 1 -48.1026 96.2052 -89.3334 248
243500 1 -46.38465 97.92315 -87.61545 248
243501 4 -44.6667 96.2052 -89.3334 248
243515 4 -44.6667 99.6411 -89.3334 248
244201 2 -58.4103 72.1539 -58.4103 249
244104 1 -56.69235 73.8718 -60.1283 249
244215 3 -58.4103 75.5898 -58.4103 249
244200 2 -60.1283 73.8718 -56.69235 249
244299 2 -58.4103 72.1539 -54.9744 249
244202 2 -56.69235 73.8718 -56.69235 249
244313 3 -58.4103 75.5898 -54.9744 249
244298 1 -60.1283 73.8718 -53.25645 249
247414 1 -46.38465 94.48725 -42.94875 250
248702 3 -46.38465 97.92315 -42.94875 250
248703 1 -44.6667 96.2052 -44.6667 250
248704 4 -42.94875 97.92315 -42.94875 250
248799 1 -48.1026 96.2052 -41.2308 250
248800 1 -46.38465 97.92315 -39.51285 250
248801 4 -44.6667 96.2052 -41.2308 250