ITEM: TIMESTEP
0
ITEM: NUMBER OF ATOMS
14
ITEM: BOX BOUNDS pp pp pp
-72.1539 120.2565
-72.1539 120.2565
-72.1539 120.2565
ITEM: ATOMS id type x y z Cluster
90664 1 22.3334 -70.436 -67.0 806
175618 2 25.7692 -70.436 -70.436 806
175715 1 24.0513 -72.1539 -68.718 806
175717 1 27.4872 -72.1539 -68.718 806
175718 2 29.2052 -70.436 -67.0 806
175729 2 24.0513 -68.718 -68.718 806
175730 4 25.7692 -67.0 -67.0 806
175731 3 27.4872 -68.718 -68.718 806
175813 2 24.0513 -72.1539 -65.2821 806
175814 3 25.7692 -70.436 -63.5642 806
175815 1 27.4872 -72.1539 -65.2821 806
175827 2 24.0513 -68.718 -65.2821 806
175829 2 27.4872 -68.718 -65.2821 806
243028 3 25.7692 -73.8718 -67.0 806
