ITEM: TIMESTEP
0
ITEM: NUMBER OF ATOMS
14
ITEM: BOX BOUNDS pp pp pp
-72.1539 120.2565
-72.1539 120.2565
-72.1539 120.2565
ITEM: ATOMS id type x y z Cluster
234399 3 65.2821 41.2308 61.8462 0
234483 2 65.2821 37.7949 65.2821 0
234495 3 61.8462 41.2308 65.2821 0
234384 3 63.5642 39.51285 63.5642 0
234386 3 67.0 39.51285 63.5642 0
234499 1 68.718 41.2308 65.2821 0
234398 2 63.5642 42.94875 63.5642 0
234511 3 65.2821 44.6667 65.2821 0
234400 3 67.0 42.94875 63.5642 0
234482 3 63.5642 39.51285 67.0 0
234595 1 65.2821 41.2308 68.718 0
234484 4 67.0 39.51285 67.0 0
234496 2 63.5642 42.94875 67.0 0
234498 2 67.0 42.94875 67.0 0
