ITEM: TIMESTEP
0
ITEM: NUMBER OF ATOMS
14
ITEM: BOX BOUNDS pp pp pp
-72.1539 120.2565
-72.1539 120.2565
-72.1539 120.2565
ITEM: ATOMS id type x y z Cluster
35108 3 -56.69235 5.15385 53.25645 682
35110 3 -53.25645 5.15385 53.25645 682
35122 4 -56.69235 8.58975 53.25645 682
35123 1 -54.9744 6.8718 51.5385 682
35124 2 -53.25645 8.58975 53.25645 682
35206 4 -56.69235 5.15385 56.69235 682
35207 3 -54.9744 3.4359 54.9744 682
35208 2 -53.25645 5.15385 56.69235 682
35219 4 -58.4103 6.8718 54.9744 682
35220 2 -56.69235 8.58975 56.69235 682
35222 2 -53.25645 8.58975 56.69235 682
35223 2 -51.5385 6.8718 54.9744 682
35235 2 -54.9744 10.3077 54.9744 682
35319 4 -54.9744 6.8718 58.4103 682
