ITEM: TIMESTEP
0
ITEM: NUMBER OF ATOMS
14
ITEM: BOX BOUNDS pp pp pp
-72.1539 120.2565
-72.1539 120.2565
-72.1539 120.2565
ITEM: ATOMS id type x y z Cluster
245375 3 65.2821 89.3334 -34.359 0
245459 2 65.2821 85.8975 -30.9231 0
245471 3 61.8462 89.3334 -30.9231 0
245360 3 63.5642 87.61545 -32.641 0
245362 3 67.0 87.61545 -32.641 0
245475 1 68.718 89.3334 -30.9231 0
245374 2 63.5642 91.05135 -32.641 0
245487 3 65.2821 92.7693 -30.9231 0
245376 3 67.0 91.05135 -32.641 0
245458 3 63.5642 87.61545 -29.2052 0
245571 1 65.2821 89.3334 -27.4872 0
245460 4 67.0 87.61545 -29.2052 0
245472 2 63.5642 91.05135 -29.2052 0
245474 2 67.0 91.05135 -29.2052 0
