ITEM: TIMESTEP
0
ITEM: NUMBER OF ATOMS
14
ITEM: BOX BOUNDS pp pp pp
-72.1539 120.2565
-72.1539 120.2565
-72.1539 120.2565
ITEM: ATOMS id type x y z Cluster
89988 3 -8.58975 -42.94875 -42.94875 805
89990 3 -5.15385 -42.94875 -42.94875 805
90002 4 -8.58975 -39.51285 -42.94875 805
90003 1 -6.8718 -41.2308 -44.6667 805
90004 2 -5.15385 -39.51285 -42.94875 805
90086 4 -8.58975 -42.94875 -39.51285 805
90087 3 -6.8718 -44.6667 -41.2308 805
90088 2 -5.15385 -42.94875 -39.51285 805
90099 4 -10.3077 -41.2308 -41.2308 805
90100 2 -8.58975 -39.51285 -39.51285 805
90102 2 -5.15385 -39.51285 -39.51285 805
90103 2 -3.4359 -41.2308 -41.2308 805
90115 2 -6.8718 -37.7949 -41.2308 805
90199 4 -6.8718 -41.2308 -37.7949 805
