ITEM: TIMESTEP
0
ITEM: NUMBER OF ATOMS
14
ITEM: BOX BOUNDS pp pp pp
-72.1539 120.2565
-72.1539 120.2565
-72.1539 120.2565
ITEM: ATOMS id type x y z Cluster
170850 4 -12.0257 80.7436 97.92315 766
170934 2 -12.0257 77.3078 101.35905 766
170946 4 -15.4616 80.7436 101.35905 766
170947 4 -13.7436 79.0257 99.6411 766
170949 4 -10.3077 79.0257 99.6411 766
170950 3 -8.58975 80.7436 101.35905 766
170961 1 -13.7436 82.4616 99.6411 766
170963 4 -10.3077 82.4616 99.6411 766
170962 2 -12.0257 84.1795 101.35905 766
171045 1 -13.7436 79.0257 103.077 766
171046 3 -12.0257 80.7436 104.79495 766
171047 1 -10.3077 79.0257 103.077 766
171059 2 -13.7436 82.4616 103.077 766
171061 1 -10.3077 82.4616 103.077 766
