ITEM: TIMESTEP
0
ITEM: NUMBER OF ATOMS
14
ITEM: BOX BOUNDS pp pp pp
-72.1539 120.2565
-72.1539 120.2565
-72.1539 120.2565
ITEM: ATOMS id type x y z Cluster
168178 3 15.4616 73.8718 53.25645 0
168180 3 18.8974 73.8718 53.25645 0
168192 1 15.4616 77.3078 53.25645 0
168193 2 17.1795 75.5898 51.5385 0
168194 3 18.8974 77.3078 53.25645 0
168276 4 15.4616 73.8718 56.69235 0
168277 3 17.1795 72.1539 54.9744 0
168278 2 18.8974 73.8718 56.69235 0
168289 3 13.7436 75.5898 54.9744 0
168290 2 15.4616 77.3078 56.69235 0
168292 3 18.8974 77.3078 56.69235 0
168293 3 20.6154 75.5898 54.9744 0
168305 3 17.1795 79.0257 54.9744 0
168389 2 17.1795 75.5898 58.4103 0
