ITEM: TIMESTEP
0
ITEM: NUMBER OF ATOMS
14
ITEM: BOX BOUNDS pp pp pp
-72.1539 120.2565
-72.1539 120.2565
-72.1539 120.2565
ITEM: ATOMS id type x y z Cluster
344935 2 99.6411 113.3847 41.2308 405
345019 2 99.6411 109.9488 44.6667 405
344920 3 97.92315 111.6668 42.94875 405
345031 3 96.2052 113.3847 44.6667 405
344922 2 101.35905 111.6668 42.94875 405
345035 4 103.077 113.3847 44.6667 405
344934 4 97.92315 115.1026 42.94875 405
344936 2 101.35905 115.1026 42.94875 405
345047 4 99.6411 116.8206 44.6667 405
345018 3 97.92315 111.6668 46.38465 405
345020 1 101.35905 111.6668 46.38465 405
345032 4 97.92315 115.1026 46.38465 405
345034 1 101.35905 115.1026 46.38465 405
345131 3 99.6411 113.3847 48.1026 405
