ITEM: TIMESTEP
0
ITEM: NUMBER OF ATOMS
14
ITEM: BOX BOUNDS pp pp pp
-72.1539 120.2565
-72.1539 120.2565
-72.1539 120.2565
ITEM: ATOMS id type x y z Cluster
234210 4 53.25645 46.38465 56.69235 1
235400 4 53.25645 49.82055 53.25645 1
235496 1 49.82055 49.82055 56.69235 1
235497 4 51.5385 48.1026 54.9744 1
235499 1 54.9744 48.1026 54.9744 1
235500 2 56.69235 49.82055 56.69235 1
235511 4 51.5385 51.5385 54.9744 1
235512 1 53.25645 53.25645 56.69235 1
235513 1 54.9744 51.5385 54.9744 1
235595 2 51.5385 48.1026 58.4103 1
235597 2 54.9744 48.1026 58.4103 1
235609 2 51.5385 51.5385 58.4103 1
235611 3 54.9744 51.5385 58.4103 1
235596 3 53.25645 49.82055 60.1283 1
