ITEM: TIMESTEP
0
ITEM: NUMBER OF ATOMS
14
ITEM: BOX BOUNDS pp pp pp
-72.1539 120.2565
-72.1539 120.2565
-72.1539 120.2565
ITEM: ATOMS id type x y z Cluster
187376 4 46.38465 -49.82055 49.82055 0
187474 4 46.38465 -49.82055 53.25645 0
188664 3 46.38465 -46.38465 49.82055 0
188761 3 44.6667 -48.1026 51.5385 0
188762 3 46.38465 -46.38465 53.25645 0
190108 1 49.82055 -49.82055 49.82055 0
190205 3 48.1026 -51.5385 51.5385 0
190206 1 49.82055 -49.82055 53.25645 0
191395 3 48.1026 -48.1026 48.1026 0
191396 4 49.82055 -46.38465 49.82055 0
191494 3 49.82055 -46.38465 53.25645 0
191495 1 51.5385 -48.1026 51.5385 0
191507 3 48.1026 -44.6667 51.5385 0
191591 1 48.1026 -48.1026 54.9744 0
