ITEM: TIMESTEP
0
ITEM: NUMBER OF ATOMS
14
ITEM: BOX BOUNDS pp pp pp
-72.1539 120.2565
-72.1539 120.2565
-72.1539 120.2565
ITEM: ATOMS id type x y z Cluster
62126 3 -60.1283 70.436 84.1795 0
82524 2 -60.1283 73.8718 80.7436 0
82621 3 -61.8462 72.1539 82.4616 0
82623 4 -58.4103 72.1539 82.4616 0
82635 3 -61.8462 75.5898 82.4616 0
82637 1 -58.4103 75.5898 82.4616 0
82620 2 -63.5642 73.8718 84.1795 0
82719 3 -61.8462 72.1539 85.8975 0
82721 2 -58.4103 72.1539 85.8975 0
82624 1 -56.69235 73.8718 84.1795 0
82733 4 -61.8462 75.5898 85.8975 0
82636 4 -60.1283 77.3078 84.1795 0
82735 3 -58.4103 75.5898 85.8975 0
82720 2 -60.1283 73.8718 87.61545 0
