ITEM: TIMESTEP
0
ITEM: NUMBER OF ATOMS
14
ITEM: BOX BOUNDS pp pp pp
-72.1539 120.2565
-72.1539 120.2565
-72.1539 120.2565
ITEM: ATOMS id type x y z Cluster
255358 2 67.0 87.61545 29.2052 508
255373 4 68.718 89.3334 27.4872 508
255360 2 70.436 87.61545 29.2052 508
255372 2 67.0 91.05135 29.2052 508
255374 3 70.436 91.05135 29.2052 508
255457 3 68.718 85.8975 30.9231 508
255469 2 65.2821 89.3334 30.9231 508
255456 2 67.0 87.61545 32.641 508
255458 2 70.436 87.61545 32.641 508
255470 1 67.0 91.05135 32.641 508
255485 1 68.718 92.7693 30.9231 508
255472 4 70.436 91.05135 32.641 508
255569 3 68.718 89.3334 34.359 508
340523 1 72.1539 89.3334 30.9231 508
