ITEM: TIMESTEP
0
ITEM: NUMBER OF ATOMS
14
ITEM: BOX BOUNDS pp pp pp
-72.1539 120.2565
-72.1539 120.2565
-72.1539 120.2565
ITEM: ATOMS id type x y z Cluster
303796 1 87.61545 22.3334 91.05135 1
324291 2 85.8975 24.0513 89.3334 1
324194 2 87.61545 25.7692 87.61545 1
324293 3 89.3334 24.0513 89.3334 1
324305 3 85.8975 27.4872 89.3334 1
324307 1 89.3334 27.4872 89.3334 1
324290 1 84.1795 25.7692 91.05135 1
324389 2 85.8975 24.0513 92.7693 1
324391 3 89.3334 24.0513 92.7693 1
324294 3 91.05135 25.7692 91.05135 1
324403 3 85.8975 27.4872 92.7693 1
324306 3 87.61545 29.2052 91.05135 1
324405 2 89.3334 27.4872 92.7693 1
324390 4 87.61545 25.7692 94.48725 1
