ITEM: TIMESTEP
0
ITEM: NUMBER OF ATOMS
14
ITEM: BOX BOUNDS pp pp pp
-72.1539 120.2565
-72.1539 120.2565
-72.1539 120.2565
ITEM: ATOMS id type x y z Cluster
143811 4 -20.6154 34.359 61.8462 717
143796 1 -22.3334 32.641 63.5642 717
143798 3 -18.8974 32.641 63.5642 717
143895 3 -20.6154 30.9231 65.2821 717
143907 1 -24.0513 34.359 65.2821 717
143911 2 -17.1795 34.359 65.2821 717
143810 4 -22.3334 36.0769 63.5642 717
143812 4 -18.8974 36.0769 63.5642 717
143923 1 -20.6154 37.7949 65.2821 717
143894 3 -22.3334 32.641 67.0 717
143896 3 -18.8974 32.641 67.0 717
144007 1 -20.6154 34.359 68.718 717
143908 3 -22.3334 36.0769 67.0 717
143910 3 -18.8974 36.0769 67.0 717
