ITEM: TIMESTEP
0
ITEM: NUMBER OF ATOMS
14
ITEM: BOX BOUNDS pp pp pp
-24.0513 24.0513
-24.0513 24.0513
-24.0513 24.0513
ITEM: ATOMS id type x y z Cluster
665 3 -13.7436 -6.8718 -3.4359 7
667 3 -10.3077 -6.8718 -3.4359 7
679 3 -13.7436 -3.4359 -3.4359 7
568 1 -12.0257 -5.15385 -5.15385 7
681 3 -10.3077 -3.4359 -3.4359 7
652 1 -12.0257 -8.58975 -1.71795 7
664 3 -15.4616 -5.15385 -1.71795 7
668 1 -8.58975 -5.15385 -1.71795 7
680 3 -12.0257 -1.71795 -1.71795 7
763 4 -13.7436 -6.8718 0.0 7
765 4 -10.3077 -6.8718 0.0 7
777 4 -13.7436 -3.4359 0.0 7
764 4 -12.0257 -5.15385 1.71795 7
779 3 -10.3077 -3.4359 0.0 7
