ITEM: TIMESTEP
0
ITEM: NUMBER OF ATOMS
14
ITEM: BOX BOUNDS pp pp pp
-72.1539 120.2565
-72.1539 120.2565
-72.1539 120.2565
ITEM: ATOMS id type x y z Cluster
63278 2 -29.2052 39.51285 77.3078 610
63293 4 -27.4872 41.2308 75.5898 610
63280 2 -25.7692 39.51285 77.3078 610
63292 2 -29.2052 42.94875 77.3078 610
63294 3 -25.7692 42.94875 77.3078 610
63377 3 -27.4872 37.7949 79.0257 610
63389 2 -30.9231 41.2308 79.0257 610
63376 2 -29.2052 39.51285 80.7436 610
63378 2 -25.7692 39.51285 80.7436 610
63390 1 -29.2052 42.94875 80.7436 610
63405 1 -27.4872 44.6667 79.0257 610
63392 4 -25.7692 42.94875 80.7436 610
63489 3 -27.4872 41.2308 82.4616 610
148443 1 -24.0513 41.2308 79.0257 610
