ITEM: TIMESTEP
0
ITEM: NUMBER OF ATOMS
14
ITEM: BOX BOUNDS pp pp pp
-72.1539 120.2565
-72.1539 120.2565
-72.1539 120.2565
ITEM: ATOMS id type x y z Cluster
347924 3 87.61545 101.35905 101.35905 409
347926 3 91.05135 101.35905 101.35905 409
347938 4 87.61545 104.79495 101.35905 409
347939 1 89.3334 103.077 99.6411 409
347940 2 91.05135 104.79495 101.35905 409
348022 4 87.61545 101.35905 104.79495 409
348023 3 89.3334 99.6411 103.077 409
348024 2 91.05135 101.35905 104.79495 409
348035 4 85.8975 103.077 103.077 409
348036 2 87.61545 104.79495 104.79495 409
348038 2 91.05135 104.79495 104.79495 409
348039 2 92.7693 103.077 103.077 409
348051 2 89.3334 106.5129 103.077 409
348135 4 89.3334 103.077 106.5129 409
