ITEM: TIMESTEP
0
ITEM: NUMBER OF ATOMS
14
ITEM: BOX BOUNDS pp pp pp
-72.1539 120.2565
-72.1539 120.2565
-72.1539 120.2565
ITEM: ATOMS id type x y z Cluster
254628 3 39.51285 101.35905 53.25645 505
254630 3 42.94875 101.35905 53.25645 505
254642 4 39.51285 104.79495 53.25645 505
254643 1 41.2308 103.077 51.5385 505
254644 2 42.94875 104.79495 53.25645 505
254726 4 39.51285 101.35905 56.69235 505
254727 3 41.2308 99.6411 54.9744 505
254728 2 42.94875 101.35905 56.69235 505
254739 4 37.7949 103.077 54.9744 505
254740 2 39.51285 104.79495 56.69235 505
254742 2 42.94875 104.79495 56.69235 505
254743 2 44.6667 103.077 54.9744 505
254755 2 41.2308 106.5129 54.9744 505
254839 4 41.2308 103.077 58.4103 505
