ITEM: TIMESTEP
0
ITEM: NUMBER OF ATOMS
14
ITEM: BOX BOUNDS pp pp pp
-72.1539 120.2565
-72.1539 120.2565
-72.1539 120.2565
ITEM: ATOMS id type x y z Cluster
349282 3 -80.7436 73.8718 101.35905 1
349284 3 -77.3078 73.8718 101.35905 1
349296 1 -80.7436 77.3078 101.35905 1
349297 2 -79.0257 75.5898 99.6411 1
349298 3 -77.3078 77.3078 101.35905 1
349380 4 -80.7436 73.8718 104.79495 1
349381 3 -79.0257 72.1539 103.077 1
349382 2 -77.3078 73.8718 104.79495 1
349393 3 -82.4616 75.5898 103.077 1
349394 2 -80.7436 77.3078 104.79495 1
349396 3 -77.3078 77.3078 104.79495 1
349397 3 -75.5898 75.5898 103.077 1
349409 3 -79.0257 79.0257 103.077 1
349493 2 -79.0257 75.5898 106.5129 1
