ITEM: TIMESTEP
0
ITEM: NUMBER OF ATOMS
14
ITEM: BOX BOUNDS pp pp pp
-72.1539 120.2565
-72.1539 120.2565
-72.1539 120.2565
ITEM: ATOMS id type x y z Cluster
91448 4 22.3334 -70.436 -39.51285 1
91545 1 20.6154 -72.1539 -37.7949 1
91546 4 22.3334 -70.436 -36.0769 1
158760 2 22.3334 -73.8718 -39.51285 1
158858 1 22.3334 -73.8718 -36.0769 1
176499 2 24.0513 -72.1539 -41.2308 1
176500 4 25.7692 -70.436 -39.51285 1
176599 1 27.4872 -72.1539 -37.7949 1
176611 4 24.0513 -68.718 -37.7949 1
176598 3 25.7692 -70.436 -36.0769 1
176695 3 24.0513 -72.1539 -34.359 1
243812 2 25.7692 -73.8718 -39.51285 1
243909 3 24.0513 -75.5898 -37.7949 1
243910 1 25.7692 -73.8718 -36.0769 1
