ITEM: TIMESTEP
0
ITEM: NUMBER OF ATOMS
14
ITEM: BOX BOUNDS pp pp pp
-72.1539 120.2565
-72.1539 120.2565
-72.1539 120.2565
ITEM: ATOMS id type x y z Cluster
205012 1 39.51285 22.3334 -5.15385 1
225507 2 37.7949 24.0513 -6.8718 1
225410 2 39.51285 25.7692 -8.58975 1
225509 3 41.2308 24.0513 -6.8718 1
225521 3 37.7949 27.4872 -6.8718 1
225523 1 41.2308 27.4872 -6.8718 1
225506 1 36.0769 25.7692 -5.15385 1
225605 2 37.7949 24.0513 -3.4359 1
225607 3 41.2308 24.0513 -3.4359 1
225510 3 42.94875 25.7692 -5.15385 1
225619 3 37.7949 27.4872 -3.4359 1
225522 3 39.51285 29.2052 -5.15385 1
225621 2 41.2308 27.4872 -3.4359 1
225606 4 39.51285 25.7692 -1.71795 1
