ITEM: TIMESTEP
0
ITEM: NUMBER OF ATOMS
14
ITEM: BOX BOUNDS pp pp pp
-72.1539 120.2565
-72.1539 120.2565
-72.1539 120.2565
ITEM: ATOMS id type x y z Cluster
41302 2 -46.38465 -12.0257 77.3078 557
41304 1 -42.94875 -12.0257 77.3078 557
41317 4 -44.6667 -10.3077 75.5898 557
41316 3 -46.38465 -8.58975 77.3078 557
41318 2 -42.94875 -8.58975 77.3078 557
41401 3 -44.6667 -13.7436 79.0257 557
41400 4 -46.38465 -12.0257 80.7436 557
41413 4 -48.1026 -10.3077 79.0257 557
41402 2 -42.94875 -12.0257 80.7436 557
41417 2 -41.2308 -10.3077 79.0257 557
41414 3 -46.38465 -8.58975 80.7436 557
41416 4 -42.94875 -8.58975 80.7436 557
41429 4 -44.6667 -6.8718 79.0257 557
41513 1 -44.6667 -10.3077 82.4616 557
