ITEM: TIMESTEP
0
ITEM: NUMBER OF ATOMS
14
ITEM: BOX BOUNDS pp pp pp
-72.1539 120.2565
-72.1539 120.2565
-72.1539 120.2565
ITEM: ATOMS id type x y z Cluster
139156 1 -8.58975 70.436 -5.15385 1
159651 2 -10.3077 72.1539 -6.8718 1
159554 2 -8.58975 73.8718 -8.58975 1
159653 3 -6.8718 72.1539 -6.8718 1
159665 3 -10.3077 75.5898 -6.8718 1
159667 1 -6.8718 75.5898 -6.8718 1
159650 1 -12.0257 73.8718 -5.15385 1
159749 2 -10.3077 72.1539 -3.4359 1
159751 3 -6.8718 72.1539 -3.4359 1
159654 3 -5.15385 73.8718 -5.15385 1
159763 3 -10.3077 75.5898 -3.4359 1
159666 3 -8.58975 77.3078 -5.15385 1
159765 2 -6.8718 75.5898 -3.4359 1
159750 4 -8.58975 73.8718 -1.71795 1
