ITEM: TIMESTEP
0
ITEM: NUMBER OF ATOMS
8
ITEM: BOX BOUNDS pp pp pp
-120.2565 120.2565
-120.2565 120.2565
-120.2565 120.2565
ITEM: ATOMS id type x y z Cluster
411714 1 49.82055 -97.92315 5.15385 63
413002 3 49.82055 -94.48725 5.15385 63
413003 1 51.5385 -96.2052 3.4359 63
413004 4 53.25645 -94.48725 5.15385 63
413099 1 48.1026 -96.2052 6.8718 63
413100 1 49.82055 -94.48725 8.58975 63
413101 4 51.5385 -96.2052 6.8718 63
413115 4 51.5385 -92.7693 6.8718 63
