ITEM: TIMESTEP
0
ITEM: NUMBER OF ATOMS
14
ITEM: BOX BOUNDS pp pp pp
-72.1539 120.2565
-72.1539 120.2565
-72.1539 120.2565
ITEM: ATOMS id type x y z Cluster
165305 3 -13.7436 89.3334 44.6667 802
165307 3 -10.3077 89.3334 44.6667 802
165319 3 -13.7436 92.7693 44.6667 802
165208 1 -12.0257 91.05135 42.94875 802
165321 3 -10.3077 92.7693 44.6667 802
165292 1 -12.0257 87.61545 46.38465 802
165304 3 -15.4616 91.05135 46.38465 802
165308 1 -8.58975 91.05135 46.38465 802
165320 3 -12.0257 94.48725 46.38465 802
165403 4 -13.7436 89.3334 48.1026 802
165405 4 -10.3077 89.3334 48.1026 802
165417 4 -13.7436 92.7693 48.1026 802
165404 4 -12.0257 91.05135 49.82055 802
165419 3 -10.3077 92.7693 48.1026 802
