ITEM: TIMESTEP
0
ITEM: NUMBER OF ATOMS
14
ITEM: BOX BOUNDS pp pp pp
-72.1539 120.2565
-72.1539 120.2565
-72.1539 120.2565
ITEM: ATOMS id type x y z Cluster
330064 4 94.48725 94.48725 -46.38465 0
330162 4 94.48725 94.48725 -42.94875 0
331352 3 94.48725 97.92315 -46.38465 0
331449 3 92.7693 96.2052 -44.6667 0
331450 3 94.48725 97.92315 -42.94875 0
332796 1 97.92315 94.48725 -46.38465 0
332893 3 96.2052 92.7693 -44.6667 0
332894 1 97.92315 94.48725 -42.94875 0
334083 3 96.2052 96.2052 -48.1026 0
334084 4 97.92315 97.92315 -46.38465 0
334182 3 97.92315 97.92315 -42.94875 0
334183 1 99.6411 96.2052 -44.6667 0
334195 3 96.2052 99.6411 -44.6667 0
334279 1 96.2052 96.2052 -41.2308 0
