ITEM: TIMESTEP
0
ITEM: NUMBER OF ATOMS
14
ITEM: BOX BOUNDS pp pp pp
-72.1539 120.2565
-72.1539 120.2565
-72.1539 120.2565
ITEM: ATOMS id type x y z Cluster
181308 2 36.0769 -70.436 -15.4616 0
181405 3 34.359 -72.1539 -13.7436 0
181407 4 37.7949 -72.1539 -13.7436 0
181419 3 34.359 -68.718 -13.7436 0
181421 1 37.7949 -68.718 -13.7436 0
181404 2 32.641 -70.436 -12.0257 0
181503 3 34.359 -72.1539 -10.3077 0
181505 2 37.7949 -72.1539 -10.3077 0
181408 1 39.51285 -70.436 -12.0257 0
181517 4 34.359 -68.718 -10.3077 0
181420 4 36.0769 -67.0 -12.0257 0
181519 3 37.7949 -68.718 -10.3077 0
181504 2 36.0769 -70.436 -8.58975 0
248718 3 36.0769 -73.8718 -12.0257 0
