ITEM: TIMESTEP
0
ITEM: NUMBER OF ATOMS
14
ITEM: BOX BOUNDS pp pp pp
-72.1539 120.2565
-72.1539 120.2565
-72.1539 120.2565
ITEM: ATOMS id type x y z Cluster
110482 4 -12.0257 -15.4616 -46.38465 889
110566 2 -12.0257 -18.8974 -42.94875 889
110578 4 -15.4616 -15.4616 -42.94875 889
110579 4 -13.7436 -17.1795 -44.6667 889
110581 4 -10.3077 -17.1795 -44.6667 889
110582 3 -8.58975 -15.4616 -42.94875 889
110593 1 -13.7436 -13.7436 -44.6667 889
110595 4 -10.3077 -13.7436 -44.6667 889
110594 2 -12.0257 -12.0257 -42.94875 889
110677 1 -13.7436 -17.1795 -41.2308 889
110678 3 -12.0257 -15.4616 -39.51285 889
110679 1 -10.3077 -17.1795 -41.2308 889
110691 2 -13.7436 -13.7436 -41.2308 889
110693 1 -10.3077 -13.7436 -41.2308 889
