ITEM: TIMESTEP
0
ITEM: NUMBER OF ATOMS
14
ITEM: BOX BOUNDS pp pp pp
-72.1539 120.2565
-72.1539 120.2565
-72.1539 120.2565
ITEM: ATOMS id type x y z Cluster
50057 3 -61.8462 41.2308 -3.4359 529
50059 3 -58.4103 41.2308 -3.4359 529
50071 3 -61.8462 44.6667 -3.4359 529
49960 1 -60.1283 42.94875 -5.15385 529
50073 3 -58.4103 44.6667 -3.4359 529
50044 1 -60.1283 39.51285 -1.71795 529
50056 3 -63.5642 42.94875 -1.71795 529
50060 1 -56.69235 42.94875 -1.71795 529
50072 3 -60.1283 46.38465 -1.71795 529
50155 4 -61.8462 41.2308 0.0 529
50157 4 -58.4103 41.2308 0.0 529
50169 4 -61.8462 44.6667 0.0 529
50156 4 -60.1283 42.94875 1.71795 529
50171 3 -58.4103 44.6667 0.0 529
