ITEM: TIMESTEP
0
ITEM: NUMBER OF ATOMS
14
ITEM: BOX BOUNDS pp pp pp
-72.1539 120.2565
-72.1539 120.2565
-72.1539 120.2565
ITEM: ATOMS id type x y z Cluster
272815 3 113.3847 -54.9744 13.7436 0
272899 2 113.3847 -58.4103 17.1795 0
272911 3 109.9488 -54.9744 17.1795 0
272800 3 111.6668 -56.69235 15.4616 0
272802 3 115.1026 -56.69235 15.4616 0
272915 1 116.8206 -54.9744 17.1795 0
272814 2 111.6668 -53.25645 15.4616 0
272927 3 113.3847 -51.5385 17.1795 0
272816 3 115.1026 -53.25645 15.4616 0
272898 3 111.6668 -56.69235 18.8974 0
273011 1 113.3847 -54.9744 20.6154 0
272900 4 115.1026 -56.69235 18.8974 0
272912 2 111.6668 -53.25645 18.8974 0
272914 2 115.1026 -53.25645 18.8974 0
