ITEM: TIMESTEP
0
ITEM: NUMBER OF ATOMS
14
ITEM: BOX BOUNDS pp pp pp
-72.1539 120.2565
-72.1539 120.2565
-72.1539 120.2565
ITEM: ATOMS id type x y z Cluster
140738 3 15.4616 25.7692 5.15385 0
140740 3 18.8974 25.7692 5.15385 0
140752 1 15.4616 29.2052 5.15385 0
140753 2 17.1795 27.4872 3.4359 0
140754 3 18.8974 29.2052 5.15385 0
140836 4 15.4616 25.7692 8.58975 0
140837 3 17.1795 24.0513 6.8718 0
140838 2 18.8974 25.7692 8.58975 0
140849 3 13.7436 27.4872 6.8718 0
140850 2 15.4616 29.2052 8.58975 0
140852 3 18.8974 29.2052 8.58975 0
140853 3 20.6154 27.4872 6.8718 0
140865 3 17.1795 30.9231 6.8718 0
140949 2 17.1795 27.4872 10.3077 0
