ITEM: TIMESTEP
0
ITEM: NUMBER OF ATOMS
14
ITEM: BOX BOUNDS pp pp pp
-24.0513 24.0513
-24.0513 24.0513
-24.0513 24.0513
ITEM: ATOMS id type x y z Cluster
784 4 -1.71795 -1.71795 1.71795 0
882 4 -1.71795 -1.71795 5.15385 0
2072 3 -1.71795 1.71795 1.71795 0
2169 3 -3.4359 0.0 3.4359 0
2170 3 -1.71795 1.71795 5.15385 0
3516 1 1.71795 -1.71795 1.71795 0
3613 3 0.0 -3.4359 3.4359 0
3614 1 1.71795 -1.71795 5.15385 0
4803 3 0.0 0.0 0.0 0
4804 4 1.71795 1.71795 1.71795 0
4902 3 1.71795 1.71795 5.15385 0
4903 1 3.4359 0.0 3.4359 0
4915 3 0.0 3.4359 3.4359 0
4999 1 0.0 0.0 6.8718 0
