ITEM: TIMESTEP
0
ITEM: NUMBER OF ATOMS
14
ITEM: BOX BOUNDS pp pp pp
-72.1539 120.2565
-72.1539 120.2565
-72.1539 120.2565
ITEM: ATOMS id type x y z Cluster
69771 1 -34.359 92.7693 -34.359 1
69672 2 -36.0769 94.48725 -36.0769 1
69674 2 -32.641 94.48725 -36.0769 1
69770 3 -36.0769 94.48725 -32.641 1
69772 4 -32.641 94.48725 -32.641 1
70961 3 -34.359 96.2052 -37.7949 1
71057 4 -37.7949 96.2052 -34.359 1
70960 3 -36.0769 97.92315 -36.0769 1
70962 2 -32.641 97.92315 -36.0769 1
71061 1 -30.9231 96.2052 -34.359 1
71073 4 -34.359 99.6411 -34.359 1
71058 4 -36.0769 97.92315 -32.641 1
71157 1 -34.359 96.2052 -30.9231 1
71060 4 -32.641 97.92315 -32.641 1
