ITEM: TIMESTEP
0
ITEM: NUMBER OF ATOMS
252
ITEM: BOX BOUNDS pp pp pp
-24.0513 24.0513
-24.0513 24.0513
-24.0513 24.0513
ITEM: ATOMS id type x y z Cluster
2 2 -22.3334 -22.3334 -22.3334 5
99 1 -24.0513 -24.0513 -20.6154 5
101 1 -20.6154 -24.0513 -20.6154 5
102 2 -18.8974 -22.3334 -18.8974 5
113 2 -24.0513 -20.6154 -20.6154 5
114 4 -22.3334 -18.8974 -18.8974 5
115 3 -20.6154 -20.6154 -20.6154 5
197 2 -24.0513 -24.0513 -17.1795 5
198 3 -22.3334 -22.3334 -15.4616 5
199 1 -20.6154 -24.0513 -17.1795 5
204 2 -12.0257 -22.3334 -15.4616 1
211 2 -24.0513 -20.6154 -17.1795 5
213 2 -20.6154 -20.6154 -17.1795 5
267 1 -24.0513 -6.8718 -17.1795 6
301 3 -13.7436 -24.0513 -13.7436 1
303 4 -10.3077 -24.0513 -13.7436 1
315 3 -13.7436 -20.6154 -13.7436 1
317 1 -10.3077 -20.6154 -13.7436 1
300 2 -15.4616 -22.3334 -12.0257 1
399 3 -13.7436 -24.0513 -10.3077 1
401 2 -10.3077 -24.0513 -10.3077 1
304 1 -8.58975 -22.3334 -12.0257 1
413 4 -13.7436 -20.6154 -10.3077 1
316 4 -12.0257 -18.8974 -12.0257 1
415 3 -10.3077 -20.6154 -10.3077 1
400 2 -12.0257 -22.3334 -8.58975 1
499 2 -10.3077 -24.0513 -6.8718 1
402 2 -8.58975 -22.3334 -8.58975 1
501 3 -6.8718 -24.0513 -6.8718 1
513 3 -10.3077 -20.6154 -6.8718 1
515 1 -6.8718 -20.6154 -6.8718 1
498 1 -12.0257 -22.3334 -5.15385 1
597 2 -10.3077 -24.0513 -3.4359 1
599 3 -6.8718 -24.0513 -3.4359 1
502 3 -5.15385 -22.3334 -5.15385 1
611 3 -10.3077 -20.6154 -3.4359 1
514 3 -8.58975 -18.8974 -5.15385 1
613 2 -6.8718 -20.6154 -3.4359 1
665 3 -13.7436 -6.8718 -3.4359 7
667 3 -10.3077 -6.8718 -3.4359 7
679 3 -13.7436 -3.4359 -3.4359 7
568 1 -12.0257 -5.15385 -5.15385 7
681 3 -10.3077 -3.4359 -3.4359 7
598 4 -8.58975 -22.3334 -1.71795 1
652 1 -12.0257 -8.58975 -1.71795 7
664 3 -15.4616 -5.15385 -1.71795 7
668 1 -8.58975 -5.15385 -1.71795 7
680 3 -12.0257 -1.71795 -1.71795 7
722 4 -12.0257 -15.4616 1.71795 8
763 4 -13.7436 -6.8718 0.0 7
765 4 -10.3077 -6.8718 0.0 7
777 4 -13.7436 -3.4359 0.0 7
764 4 -12.0257 -5.15385 1.71795 7
779 3 -10.3077 -3.4359 0.0 7
784 4 -1.71795 -1.71795 1.71795 2
806 2 -12.0257 -18.8974 5.15385 8
818 4 -15.4616 -15.4616 5.15385 8
819 4 -13.7436 -17.1795 3.4359 8
821 4 -10.3077 -17.1795 3.4359 8
822 3 -8.58975 -15.4616 5.15385 8
833 1 -13.7436 -13.7436 3.4359 8
835 4 -10.3077 -13.7436 3.4359 8
834 2 -12.0257 -12.0257 5.15385 8
882 4 -1.71795 -1.71795 5.15385 2
883 2 -24.0513 -24.0513 6.8718 3
884 4 -22.3334 -22.3334 8.58975 3
917 1 -13.7436 -17.1795 6.8718 8
918 3 -12.0257 -15.4616 8.58975 8
919 1 -10.3077 -17.1795 6.8718 8
931 2 -13.7436 -13.7436 6.8718 8
933 1 -10.3077 -13.7436 6.8718 8
983 1 -20.6154 -24.0513 10.3077 3
995 4 -24.0513 -20.6154 10.3077 3
982 3 -22.3334 -22.3334 12.0257 3
1079 3 -24.0513 -24.0513 13.7436 3
1123 4 -20.6154 -13.7436 13.7436 9
1108 1 -22.3334 -15.4616 15.4616 9
1110 3 -18.8974 -15.4616 15.4616 9
1207 3 -20.6154 -17.1795 17.1795 9
1219 1 -24.0513 -13.7436 17.1795 9
1223 2 -17.1795 -13.7436 17.1795 9
1122 4 -22.3334 -12.0257 15.4616 9
1124 4 -18.8974 -12.0257 15.4616 9
1235 1 -20.6154 -10.3077 17.1795 9
1206 3 -22.3334 -15.4616 18.8974 9
1208 3 -18.8974 -15.4616 18.8974 9
1319 1 -20.6154 -13.7436 20.6154 9
1220 3 -22.3334 -12.0257 18.8974 9
1222 3 -18.8974 -12.0257 18.8974 9
1556 3 -22.3334 -25.7692 -18.8974 5
1758 3 -12.0257 -25.7692 -12.0257 1
1794 1 -22.3334 8.58975 -8.58975 10
1891 3 -24.0513 6.8718 -6.8718 10
1893 1 -20.6154 6.8718 -6.8718 10
1905 4 -24.0513 10.3077 -6.8718 10
1907 1 -20.6154 10.3077 -6.8718 10
1878 2 -22.3334 5.15385 -5.15385 10
1989 2 -24.0513 6.8718 -3.4359 10
1894 3 -18.8974 8.58975 -5.15385 10
1991 1 -20.6154 6.8718 -3.4359 10
2003 4 -24.0513 10.3077 -3.4359 10
2005 1 -20.6154 10.3077 -3.4359 10
1906 3 -22.3334 12.0257 -5.15385 10
1956 1 -8.58975 -25.7692 -5.15385 1
1990 1 -22.3334 8.58975 -1.71795 10
2072 3 -1.71795 1.71795 1.71795 2
2169 3 -3.4359 0.0 3.4359 2
2170 3 -1.71795 1.71795 5.15385 2
2180 3 -8.58975 5.15385 5.15385 11
2182 3 -5.15385 5.15385 5.15385 11
2194 4 -8.58975 8.58975 5.15385 11
2195 1 -6.8718 6.8718 3.4359 11
2196 2 -5.15385 8.58975 5.15385 11
2278 4 -8.58975 5.15385 8.58975 11
2279 3 -6.8718 3.4359 6.8718 11
2280 2 -5.15385 5.15385 8.58975 11
2291 4 -10.3077 6.8718 6.8718 11
2292 2 -8.58975 8.58975 8.58975 11
2294 2 -5.15385 8.58975 8.58975 11
2295 2 -3.4359 6.8718 6.8718 11
2307 2 -6.8718 10.3077 6.8718 11
2340 2 -22.3334 -25.7692 8.58975 3
2391 4 -6.8718 6.8718 10.3077 11
2437 3 -24.0513 -27.4872 10.3077 3
2438 1 -22.3334 -25.7692 12.0257 3
2856 1 -25.7692 -22.3334 -18.8974 5
2886 2 1.71795 -12.0257 -18.8974 12
2888 1 5.15385 -12.0257 -18.8974 12
2901 4 3.4359 -10.3077 -20.6154 12
2900 3 1.71795 -8.58975 -18.8974 12
2902 2 5.15385 -8.58975 -18.8974 12
2910 2 -29.2052 -8.58975 -18.8974 6
2925 4 -27.4872 -6.8718 -20.6154 6
2912 2 -25.7692 -8.58975 -18.8974 6
2924 2 -29.2052 -5.15385 -18.8974 6
2926 3 -25.7692 -5.15385 -18.8974 6
2934 1 12.0257 -1.71795 -18.8974 13
2936 3 15.4616 -1.71795 -18.8974 13
2985 3 3.4359 -13.7436 -17.1795 12
2984 4 1.71795 -12.0257 -15.4616 12
2997 4 0.0 -10.3077 -17.1795 12
2986 2 5.15385 -12.0257 -15.4616 12
3001 2 6.8718 -10.3077 -17.1795 12
3009 3 -27.4872 -10.3077 -17.1795 6
2998 3 1.71795 -8.58975 -15.4616 12
3000 4 5.15385 -8.58975 -15.4616 12
3013 4 3.4359 -6.8718 -17.1795 12
3021 2 -30.9231 -6.8718 -17.1795 6
3008 2 -29.2052 -8.58975 -15.4616 6
3010 2 -25.7692 -8.58975 -15.4616 6
3033 3 13.7436 -3.4359 -17.1795 13
3022 1 -29.2052 -5.15385 -15.4616 6
3037 1 -27.4872 -3.4359 -17.1795 6
3024 4 -25.7692 -5.15385 -15.4616 6
3032 3 12.0257 -1.71795 -15.4616 13
3034 4 15.4616 -1.71795 -15.4616 13
3097 1 3.4359 -10.3077 -13.7436 12
3121 3 -27.4872 -6.8718 -13.7436 6
3516 1 1.71795 -1.71795 1.71795 2
3538 3 -32.641 -22.3334 5.15385 3
3540 3 -29.2052 -22.3334 5.15385 3
3552 1 -32.641 -18.8974 5.15385 3
3553 2 -30.9231 -20.6154 3.4359 3
3554 3 -29.2052 -18.8974 5.15385 3
3613 3 0.0 -3.4359 3.4359 2
3614 1 1.71795 -1.71795 5.15385 2
3636 4 -32.641 -22.3334 8.58975 3
3637 3 -30.9231 -24.0513 6.8718 3
3638 2 -29.2052 -22.3334 8.58975 3
3640 4 -25.7692 -22.3334 8.58975 3
3649 3 -34.359 -20.6154 6.8718 3
3650 2 -32.641 -18.8974 8.58975 3
3652 3 -29.2052 -18.8974 8.58975 3
3653 3 -27.4872 -20.6154 6.8718 3
3665 3 -30.9231 -17.1795 6.8718 3
3714 4 5.15385 -1.71795 8.58975 2
3737 1 -27.4872 -24.0513 10.3077 3
3749 2 -30.9231 -20.6154 10.3077 3
3738 4 -25.7692 -22.3334 12.0257 3
3903 3 17.1795 -6.8718 13.7436 4
3915 1 13.7436 -3.4359 13.7436 4
3816 2 12.0257 -1.71795 12.0257 4
3818 2 15.4616 -1.71795 12.0257 4
3987 2 17.1795 -10.3077 17.1795 4
3999 3 13.7436 -6.8718 17.1795 4
3888 3 15.4616 -8.58975 15.4616 4
3890 3 18.8974 -8.58975 15.4616 4
4003 1 20.6154 -6.8718 17.1795 4
3902 2 15.4616 -5.15385 15.4616 4
4015 3 17.1795 -3.4359 17.1795 4
3904 3 18.8974 -5.15385 15.4616 4
3914 3 12.0257 -1.71795 15.4616 4
3916 4 15.4616 -1.71795 15.4616 4
3986 3 15.4616 -8.58975 18.8974 4
4099 1 17.1795 -6.8718 20.6154 4
3988 4 18.8974 -8.58975 18.8974 4
4000 2 15.4616 -5.15385 18.8974 4
4002 2 18.8974 -5.15385 18.8974 4
4222 1 12.0257 1.71795 -18.8974 13
4223 4 13.7436 0.0 -20.6154 13
4224 2 15.4616 1.71795 -18.8974 13
4319 4 10.3077 0.0 -17.1795 13
4320 1 12.0257 1.71795 -15.4616 13
4322 1 15.4616 1.71795 -15.4616 13
4323 4 17.1795 0.0 -17.1795 13
4335 4 13.7436 3.4359 -17.1795 13
4419 4 13.7436 0.0 -13.7436 13
4679 2 3.4359 17.1795 -6.8718 14
4648 3 -25.7692 8.58975 -5.15385 10
4763 2 3.4359 13.7436 -3.4359 14
4664 3 1.71795 15.4616 -5.15385 14
4775 3 0.0 17.1795 -3.4359 14
4666 2 5.15385 15.4616 -5.15385 14
4779 4 6.8718 17.1795 -3.4359 14
4678 4 1.71795 18.8974 -5.15385 14
4680 2 5.15385 18.8974 -5.15385 14
4791 4 3.4359 20.6154 -3.4359 14
4762 3 1.71795 15.4616 -1.71795 14
4764 1 5.15385 15.4616 -1.71795 14
4776 4 1.71795 18.8974 -1.71795 14
4778 1 5.15385 18.8974 -1.71795 14
4803 3 0.0 0.0 0.0 2
4804 4 1.71795 1.71795 1.71795 2
4875 3 3.4359 17.1795 0.0 14
4902 3 1.71795 1.71795 5.15385 2
4903 1 3.4359 0.0 3.4359 2
4904 4 5.15385 1.71795 5.15385 2
4915 3 0.0 3.4359 3.4359 2
4999 1 0.0 0.0 6.8718 2
5000 1 1.71795 1.71795 8.58975 2
5001 4 3.4359 0.0 6.8718 2
5003 1 6.8718 0.0 6.8718 2
5004 2 8.58975 1.71795 8.58975 2
5015 4 3.4359 3.4359 6.8718 2
5016 1 5.15385 5.15385 8.58975 2
5017 1 6.8718 3.4359 6.8718 2
5096 2 -25.7692 -25.7692 8.58975 3
5099 2 3.4359 0.0 10.3077 2
5101 2 6.8718 0.0 10.3077 2
5105 3 13.7436 0.0 10.3077 4
5113 2 3.4359 3.4359 10.3077 2
5115 3 6.8718 3.4359 10.3077 2
5100 3 5.15385 1.71795 12.0257 2
5201 4 10.3077 0.0 13.7436 4
5104 3 12.0257 1.71795 12.0257 4
5106 2 15.4616 1.71795 12.0257 4
5205 1 17.1795 0.0 13.7436 4
5217 4 13.7436 3.4359 13.7436 4
5194 1 -25.7692 -25.7692 12.0257 3
5202 4 12.0257 1.71795 15.4616 4
5301 1 13.7436 0.0 17.1795 4
5204 4 15.4616 1.71795 15.4616 4
