ITEM: TIMESTEP
0
ITEM: NUMBER OF ATOMS
14
ITEM: BOX BOUNDS pp pp pp
-72.1539 120.2565
-72.1539 120.2565
-72.1539 120.2565
ITEM: ATOMS id type x y z Cluster
217935 3 65.2821 -6.8718 109.9488 0
218019 2 65.2821 -10.3077 113.3847 0
218031 3 61.8462 -6.8718 113.3847 0
217920 3 63.5642 -8.58975 111.6668 0
217922 3 67.0 -8.58975 111.6668 0
218035 1 68.718 -6.8718 113.3847 0
217934 2 63.5642 -5.15385 111.6668 0
218047 3 65.2821 -3.4359 113.3847 0
217936 3 67.0 -5.15385 111.6668 0
218018 3 63.5642 -8.58975 115.1026 0
218131 1 65.2821 -6.8718 116.8206 0
218020 4 67.0 -8.58975 115.1026 0
218032 2 63.5642 -5.15385 115.1026 0
218034 2 67.0 -5.15385 115.1026 0
