ITEM: TIMESTEP
0
ITEM: NUMBER OF ATOMS
14
ITEM: BOX BOUNDS pp pp pp
-72.1539 120.2565
-72.1539 120.2565
-72.1539 120.2565
ITEM: ATOMS id type x y z Cluster
242137 3 34.359 89.3334 -51.5385 438
242139 3 37.7949 89.3334 -51.5385 438
242151 3 34.359 92.7693 -51.5385 438
242040 1 36.0769 91.05135 -53.25645 438
242153 3 37.7949 92.7693 -51.5385 438
242124 1 36.0769 87.61545 -49.82055 438
242136 3 32.641 91.05135 -49.82055 438
242140 1 39.51285 91.05135 -49.82055 438
242152 3 36.0769 94.48725 -49.82055 438
242235 4 34.359 89.3334 -48.1026 438
242237 4 37.7949 89.3334 -48.1026 438
242249 4 34.359 92.7693 -48.1026 438
242236 4 36.0769 91.05135 -46.38465 438
242251 3 37.7949 92.7693 -48.1026 438
