ITEM: TIMESTEP
0
ITEM: NUMBER OF ATOMS
14
ITEM: BOX BOUNDS pp pp pp
-72.1539 120.2565
-72.1539 120.2565
-72.1539 120.2565
ITEM: ATOMS id type x y z Cluster
68036 3 -56.69235 101.35905 -42.94875 572
68038 3 -53.25645 101.35905 -42.94875 572
68050 4 -56.69235 104.79495 -42.94875 572
68051 1 -54.9744 103.077 -44.6667 572
68052 2 -53.25645 104.79495 -42.94875 572
68134 4 -56.69235 101.35905 -39.51285 572
68135 3 -54.9744 99.6411 -41.2308 572
68136 2 -53.25645 101.35905 -39.51285 572
68147 4 -58.4103 103.077 -41.2308 572
68148 2 -56.69235 104.79495 -39.51285 572
68150 2 -53.25645 104.79495 -39.51285 572
68151 2 -51.5385 103.077 -41.2308 572
68163 2 -54.9744 106.5129 -41.2308 572
68247 4 -54.9744 103.077 -37.7949 572
