ITEM: TIMESTEP
0
ITEM: NUMBER OF ATOMS
14
ITEM: BOX BOUNDS pp pp pp
-72.1539 120.2565
-72.1539 120.2565
-72.1539 120.2565
ITEM: ATOMS id type x y z Cluster
17248 4 -49.82055 -49.82055 97.92315 0
17346 4 -49.82055 -49.82055 101.35905 0
18536 3 -49.82055 -46.38465 97.92315 0
18633 3 -51.5385 -48.1026 99.6411 0
18634 3 -49.82055 -46.38465 101.35905 0
19980 1 -46.38465 -49.82055 97.92315 0
20077 3 -48.1026 -51.5385 99.6411 0
20078 1 -46.38465 -49.82055 101.35905 0
21267 3 -48.1026 -48.1026 96.2052 0
21268 4 -46.38465 -46.38465 97.92315 0
21366 3 -46.38465 -46.38465 101.35905 0
21367 1 -44.6667 -48.1026 99.6411 0
21379 3 -48.1026 -44.6667 99.6411 0
21463 1 -48.1026 -48.1026 103.077 0
