ITEM: TIMESTEP
0
ITEM: NUMBER OF ATOMS
14
ITEM: BOX BOUNDS pp pp pp
-72.1539 120.2565
-72.1539 120.2565
-72.1539 120.2565
ITEM: ATOMS id type x y z Cluster
119151 3 17.1795 -6.8718 13.7436 0
119235 2 17.1795 -10.3077 17.1795 0
119247 3 13.7436 -6.8718 17.1795 0
119136 3 15.4616 -8.58975 15.4616 0
119138 3 18.8974 -8.58975 15.4616 0
119251 1 20.6154 -6.8718 17.1795 0
119150 2 15.4616 -5.15385 15.4616 0
119263 3 17.1795 -3.4359 17.1795 0
119152 3 18.8974 -5.15385 15.4616 0
119234 3 15.4616 -8.58975 18.8974 0
119347 1 17.1795 -6.8718 20.6154 0
119236 4 18.8974 -8.58975 18.8974 0
119248 2 15.4616 -5.15385 18.8974 0
119250 2 18.8974 -5.15385 18.8974 0
