ITEM: TIMESTEP
0
ITEM: NUMBER OF ATOMS
30
ITEM: BOX BOUNDS pp pp pp
-24.0513 24.0513
-24.0513 24.0513
-24.0513 24.0513
ITEM: ATOMS id type x y z Cluster
2128 1 -1.71795 15.4616 1.71795 0
2225 4 -3.4359 13.7436 3.4359 0
2212 4 -1.71795 12.0257 5.15385 0
2224 4 -5.15385 15.4616 5.15385 0
2239 2 -3.4359 17.1795 3.4359 0
2240 3 -1.71795 18.8974 5.15385 0
2323 4 -3.4359 13.7436 6.8718 0
2322 2 -5.15385 15.4616 8.58975 0
2337 3 -3.4359 17.1795 6.8718 0
2324 2 -1.71795 15.4616 8.58975 0
2419 2 -6.8718 13.7436 10.3077 0
2421 1 -3.4359 13.7436 10.3077 0
2433 2 -6.8718 17.1795 10.3077 0
2435 1 -3.4359 17.1795 10.3077 0
2517 2 -6.8718 13.7436 13.7436 0
2406 1 -5.15385 12.0257 12.0257 0
2519 3 -3.4359 13.7436 13.7436 0
2418 3 -8.58975 15.4616 12.0257 0
2531 4 -6.8718 17.1795 13.7436 0
2533 2 -3.4359 17.1795 13.7436 0
2422 1 -1.71795 15.4616 12.0257 0
2434 4 -5.15385 18.8974 12.0257 0
2518 3 -5.15385 15.4616 15.4616 0
4859 4 0.0 13.7436 0.0 0
4860 4 1.71795 15.4616 1.71795 0
4959 4 3.4359 13.7436 3.4359 0
4958 1 1.71795 15.4616 5.15385 0
4971 1 0.0 17.1795 3.4359 0
5055 1 0.0 13.7436 6.8718 0
5069 2 0.0 17.1795 6.8718 0
