ITEM: TIMESTEP
0
ITEM: NUMBER OF ATOMS
14
ITEM: BOX BOUNDS pp pp pp
-72.1539 120.2565
-72.1539 120.2565
-72.1539 120.2565
ITEM: ATOMS id type x y z Cluster
97975 2 3.4359 -30.9231 -6.8718 820
98059 2 3.4359 -34.359 -3.4359 820
97960 3 1.71795 -32.641 -5.15385 820
98071 3 0.0 -30.9231 -3.4359 820
97962 2 5.15385 -32.641 -5.15385 820
98075 4 6.8718 -30.9231 -3.4359 820
97974 4 1.71795 -29.2052 -5.15385 820
97976 2 5.15385 -29.2052 -5.15385 820
98087 4 3.4359 -27.4872 -3.4359 820
98058 3 1.71795 -32.641 -1.71795 820
98060 1 5.15385 -32.641 -1.71795 820
98072 4 1.71795 -29.2052 -1.71795 820
98074 1 5.15385 -29.2052 -1.71795 820
98171 3 3.4359 -30.9231 0.0 820
