ITEM: TIMESTEP
0
ITEM: NUMBER OF ATOMS
14
ITEM: BOX BOUNDS pp pp pp
-72.1539 120.2565
-72.1539 120.2565
-72.1539 120.2565
ITEM: ATOMS id type x y z Cluster
286499 4 75.5898 -13.7436 -34.359 376
286484 1 73.8718 -15.4616 -32.641 376
286486 3 77.3078 -15.4616 -32.641 376
286583 3 75.5898 -17.1795 -30.9231 376
286595 1 72.1539 -13.7436 -30.9231 376
286599 2 79.0257 -13.7436 -30.9231 376
286498 4 73.8718 -12.0257 -32.641 376
286500 4 77.3078 -12.0257 -32.641 376
286611 1 75.5898 -10.3077 -30.9231 376
286582 3 73.8718 -15.4616 -29.2052 376
286584 3 77.3078 -15.4616 -29.2052 376
286695 1 75.5898 -13.7436 -27.4872 376
286596 3 73.8718 -12.0257 -29.2052 376
286598 3 77.3078 -12.0257 -29.2052 376
