ITEM: TIMESTEP
0
ITEM: NUMBER OF ATOMS
14
ITEM: BOX BOUNDS pp pp pp
-24.0513 24.0513
-24.0513 24.0513
-24.0513 24.0513
ITEM: ATOMS id type x y z
746 3 -18.8974 -8.58975 1.71795
748 2 -15.4616 -8.58975 1.71795
761 1 -17.1795 -6.8718 0.0
760 2 -18.8974 -5.15385 1.71795
762 1 -15.4616 -5.15385 1.71795
845 4 -17.1795 -10.3077 3.4359
844 3 -18.8974 -8.58975 5.15385
857 2 -20.6154 -6.8718 3.4359
846 3 -15.4616 -8.58975 5.15385
861 2 -13.7436 -6.8718 3.4359
858 2 -18.8974 -5.15385 5.15385
860 3 -15.4616 -5.15385 5.15385
873 2 -17.1795 -3.4359 3.4359
957 1 -17.1795 -6.8718 6.8718
