ITEM: TIMESTEP
0
ITEM: NUMBER OF ATOMS
14
ITEM: BOX BOUNDS pp pp pp
-120.2565 120.2565
-120.2565 120.2565
-120.2565 120.2565
ITEM: ATOMS id type x y z
647188 4 111.6668 70.436 8.58975
673074 3 111.6668 73.8718 5.15385
673170 2 108.2309 73.8718 8.58975
673171 1 109.9488 72.1539 6.8718
673173 3 113.3847 72.1539 6.8718
673174 2 115.1026 73.8718 8.58975
673185 3 109.9488 75.5898 6.8718
673186 2 111.6668 77.3078 8.58975
673187 1 113.3847 75.5898 6.8718
673269 1 109.9488 72.1539 10.3077
673271 4 113.3847 72.1539 10.3077
673283 2 109.9488 75.5898 10.3077
673285 2 113.3847 75.5898 10.3077
673270 4 111.6668 73.8718 12.0257
