ITEM: TIMESTEP
0
ITEM: NUMBER OF ATOMS
14
ITEM: BOX BOUNDS pp pp pp
-24.0513 24.0513
-24.0513 24.0513
-24.0513 24.0513
ITEM: ATOMS id type x y z
1457 1 -24.0513 20.6154 -24.0513
2757 4 20.6154 -24.0513 -24.0513
4199 2 20.6154 17.1795 -24.0513
4211 1 17.1795 20.6154 -24.0513
4198 3 18.8974 18.8974 -22.3334
4200 3 22.3334 18.8974 -22.3334
4212 4 18.8974 22.3334 -22.3334
4214 3 22.3334 22.3334 -22.3334
4311 3 20.6154 20.6154 -20.6154
5487 2 20.6154 20.6154 20.6154
5472 1 18.8974 18.8974 22.3334
5474 1 22.3334 18.8974 22.3334
5486 2 18.8974 22.3334 22.3334
5488 4 22.3334 22.3334 22.3334
