ITEM: TIMESTEP
0
ITEM: NUMBER OF ATOMS
14
ITEM: BOX BOUNDS pp pp pp
-24.0513 24.0513
-24.0513 24.0513
-24.0513 24.0513
ITEM: ATOMS id type x y z
559 4 -3.4359 -10.3077 -6.8718
643 1 -3.4359 -13.7436 -3.4359
655 4 -6.8718 -10.3077 -3.4359
544 3 -5.15385 -12.0257 -5.15385
546 2 -1.71795 -12.0257 -5.15385
558 2 -5.15385 -8.58975 -5.15385
671 1 -3.4359 -6.8718 -3.4359
560 4 -1.71795 -8.58975 -5.15385
642 3 -5.15385 -12.0257 -1.71795
644 3 -1.71795 -12.0257 -1.71795
656 1 -5.15385 -8.58975 -1.71795
658 3 -1.71795 -8.58975 -1.71795
755 4 -3.4359 -10.3077 0.0
3389 1 0.0 -10.3077 -3.4359
