ITEM: TIMESTEP
0
ITEM: NUMBER OF ATOMS
31500
ITEM: BOX BOUNDS pp pp pp
-120.2565 120.2565
-120.2565 120.2565
-120.2565 120.2565
ITEM: ATOMS id type x y z
2 2 -118.5386 -118.5386 -118.5386
99 1 -120.2565 -120.2565 -116.8206
101 1 -116.8206 -120.2565 -116.8206
102 2 -115.1026 -118.5386 -115.1026
113 2 -120.2565 -116.8206 -116.8206
114 4 -118.5386 -115.1026 -115.1026
115 3 -116.8206 -116.8206 -116.8206
197 2 -120.2565 -120.2565 -113.3847
198 3 -118.5386 -118.5386 -111.6668
199 1 -116.8206 -120.2565 -113.3847
204 2 -108.2309 -118.5386 -111.6668
211 2 -120.2565 -116.8206 -113.3847
213 2 -116.8206 -116.8206 -113.3847
267 1 -120.2565 -103.077 -113.3847
301 3 -109.9488 -120.2565 -109.9488
303 4 -106.5129 -120.2565 -109.9488
315 3 -109.9488 -116.8206 -109.9488
317 1 -106.5129 -116.8206 -109.9488
300 2 -111.6668 -118.5386 -108.2309
399 3 -109.9488 -120.2565 -106.5129
401 2 -106.5129 -120.2565 -106.5129
304 1 -104.79495 -118.5386 -108.2309
413 4 -109.9488 -116.8206 -106.5129
316 4 -108.2309 -115.1026 -108.2309
415 3 -106.5129 -116.8206 -106.5129
400 2 -108.2309 -118.5386 -104.79495
499 2 -106.5129 -120.2565 -103.077
402 2 -104.79495 -118.5386 -104.79495
501 3 -103.077 -120.2565 -103.077
513 3 -106.5129 -116.8206 -103.077
515 1 -103.077 -116.8206 -103.077
498 1 -108.2309 -118.5386 -101.35905
597 2 -106.5129 -120.2565 -99.6411
599 3 -103.077 -120.2565 -99.6411
502 3 -101.35905 -118.5386 -101.35905
611 3 -106.5129 -116.8206 -99.6411
514 3 -104.79495 -115.1026 -101.35905
613 2 -103.077 -116.8206 -99.6411
665 3 -109.9488 -103.077 -99.6411
667 3 -106.5129 -103.077 -99.6411
679 3 -109.9488 -99.6411 -99.6411
568 1 -108.2309 -101.35905 -101.35905
681 3 -106.5129 -99.6411 -99.6411
598 4 -104.79495 -118.5386 -97.92315
652 1 -108.2309 -104.79495 -97.92315
664 3 -111.6668 -101.35905 -97.92315
668 1 -104.79495 -101.35905 -97.92315
680 3 -108.2309 -97.92315 -97.92315
722 4 -108.2309 -111.6668 -94.48725
763 4 -109.9488 -103.077 -96.2052
765 4 -106.5129 -103.077 -96.2052
777 4 -109.9488 -99.6411 -96.2052
764 4 -108.2309 -101.35905 -94.48725
779 3 -106.5129 -99.6411 -96.2052
784 4 -97.92315 -97.92315 -94.48725
806 2 -108.2309 -115.1026 -91.05135
818 4 -111.6668 -111.6668 -91.05135
819 4 -109.9488 -113.3847 -92.7693
821 4 -106.5129 -113.3847 -92.7693
822 3 -104.79495 -111.6668 -91.05135
833 1 -109.9488 -109.9488 -92.7693
835 4 -106.5129 -109.9488 -92.7693
834 2 -108.2309 -108.2309 -91.05135
882 4 -97.92315 -97.92315 -91.05135
883 2 -120.2565 -120.2565 -89.3334
884 4 -118.5386 -118.5386 -87.61545
917 1 -109.9488 -113.3847 -89.3334
918 3 -108.2309 -111.6668 -87.61545
919 1 -106.5129 -113.3847 -89.3334
931 2 -109.9488 -109.9488 -89.3334
933 1 -106.5129 -109.9488 -89.3334
983 1 -116.8206 -120.2565 -85.8975
995 4 -120.2565 -116.8206 -85.8975
982 3 -118.5386 -118.5386 -84.1795
1079 3 -120.2565 -120.2565 -82.4616
1123 4 -116.8206 -109.9488 -82.4616
1108 1 -118.5386 -111.6668 -80.7436
1110 3 -115.1026 -111.6668 -80.7436
1207 3 -116.8206 -113.3847 -79.0257
1219 1 -120.2565 -109.9488 -79.0257
1223 2 -113.3847 -109.9488 -79.0257
1122 4 -118.5386 -108.2309 -80.7436
1124 4 -115.1026 -108.2309 -80.7436
1235 1 -116.8206 -106.5129 -79.0257
1206 3 -118.5386 -111.6668 -77.3078
1208 3 -115.1026 -111.6668 -77.3078
1319 1 -116.8206 -109.9488 -75.5898
1220 3 -118.5386 -108.2309 -77.3078
1222 3 -115.1026 -108.2309 -77.3078
1556 3 -118.5386 -73.8718 -115.1026
1758 3 -108.2309 -73.8718 -108.2309
1794 1 -118.5386 -87.61545 -104.79495
1891 3 -120.2565 -89.3334 -103.077
1893 1 -116.8206 -89.3334 -103.077
1905 4 -120.2565 -85.8975 -103.077
1907 1 -116.8206 -85.8975 -103.077
1878 2 -118.5386 -91.05135 -101.35905
1989 2 -120.2565 -89.3334 -99.6411
1894 3 -115.1026 -87.61545 -101.35905
1991 1 -116.8206 -89.3334 -99.6411
2003 4 -120.2565 -85.8975 -99.6411
2005 1 -116.8206 -85.8975 -99.6411
1906 3 -118.5386 -84.1795 -101.35905
1956 1 -104.79495 -73.8718 -101.35905
1990 1 -118.5386 -87.61545 -97.92315
2072 3 -97.92315 -94.48725 -94.48725
2169 3 -99.6411 -96.2052 -92.7693
2170 3 -97.92315 -94.48725 -91.05135
2180 3 -104.79495 -91.05135 -91.05135
2182 3 -101.35905 -91.05135 -91.05135
2194 4 -104.79495 -87.61545 -91.05135
2195 1 -103.077 -89.3334 -92.7693
2196 2 -101.35905 -87.61545 -91.05135
2278 4 -104.79495 -91.05135 -87.61545
2279 3 -103.077 -92.7693 -89.3334
2280 2 -101.35905 -91.05135 -87.61545
2291 4 -106.5129 -89.3334 -89.3334
2292 2 -104.79495 -87.61545 -87.61545
2294 2 -101.35905 -87.61545 -87.61545
2295 2 -99.6411 -89.3334 -89.3334
2307 2 -103.077 -85.8975 -89.3334
2340 2 -118.5386 -73.8718 -87.61545
2391 4 -103.077 -89.3334 -85.8975
2437 3 -120.2565 -75.5898 -85.8975
2438 1 -118.5386 -73.8718 -84.1795
2856 1 -73.8718 -118.5386 -115.1026
2886 2 -94.48725 -108.2309 -115.1026
2888 1 -91.05135 -108.2309 -115.1026
2901 4 -92.7693 -106.5129 -116.8206
2900 3 -94.48725 -104.79495 -115.1026
2902 2 -91.05135 -104.79495 -115.1026
2910 2 -77.3078 -104.79495 -115.1026
2925 4 -75.5898 -103.077 -116.8206
2912 2 -73.8718 -104.79495 -115.1026
2924 2 -77.3078 -101.35905 -115.1026
2926 3 -73.8718 -101.35905 -115.1026
2934 1 -84.1795 -97.92315 -115.1026
2936 3 -80.7436 -97.92315 -115.1026
2985 3 -92.7693 -109.9488 -113.3847
2984 4 -94.48725 -108.2309 -111.6668
2997 4 -96.2052 -106.5129 -113.3847
2986 2 -91.05135 -108.2309 -111.6668
3001 2 -89.3334 -106.5129 -113.3847
3009 3 -75.5898 -106.5129 -113.3847
2998 3 -94.48725 -104.79495 -111.6668
3000 4 -91.05135 -104.79495 -111.6668
3013 4 -92.7693 -103.077 -113.3847
3021 2 -79.0257 -103.077 -113.3847
3008 2 -77.3078 -104.79495 -111.6668
3010 2 -73.8718 -104.79495 -111.6668
3033 3 -82.4616 -99.6411 -113.3847
3022 1 -77.3078 -101.35905 -111.6668
3037 1 -75.5898 -99.6411 -113.3847
3024 4 -73.8718 -101.35905 -111.6668
3032 3 -84.1795 -97.92315 -111.6668
3034 4 -80.7436 -97.92315 -111.6668
3097 1 -92.7693 -106.5129 -109.9488
3121 3 -75.5898 -103.077 -109.9488
3516 1 -94.48725 -97.92315 -94.48725
3538 3 -80.7436 -118.5386 -91.05135
3540 3 -77.3078 -118.5386 -91.05135
3552 1 -80.7436 -115.1026 -91.05135
3553 2 -79.0257 -116.8206 -92.7693
3554 3 -77.3078 -115.1026 -91.05135
3613 3 -96.2052 -99.6411 -92.7693
3614 1 -94.48725 -97.92315 -91.05135
3636 4 -80.7436 -118.5386 -87.61545
3637 3 -79.0257 -120.2565 -89.3334
3638 2 -77.3078 -118.5386 -87.61545
3640 4 -73.8718 -118.5386 -87.61545
3649 3 -82.4616 -116.8206 -89.3334
3650 2 -80.7436 -115.1026 -87.61545
3652 3 -77.3078 -115.1026 -87.61545
3653 3 -75.5898 -116.8206 -89.3334
3665 3 -79.0257 -113.3847 -89.3334
3714 4 -91.05135 -97.92315 -87.61545
3737 1 -75.5898 -120.2565 -85.8975
3749 2 -79.0257 -116.8206 -85.8975
3738 4 -73.8718 -118.5386 -84.1795
3903 3 -79.0257 -103.077 -82.4616
3915 1 -82.4616 -99.6411 -82.4616
3816 2 -84.1795 -97.92315 -84.1795
3818 2 -80.7436 -97.92315 -84.1795
3987 2 -79.0257 -106.5129 -79.0257
3999 3 -82.4616 -103.077 -79.0257
3888 3 -80.7436 -104.79495 -80.7436
3890 3 -77.3078 -104.79495 -80.7436
4003 1 -75.5898 -103.077 -79.0257
3902 2 -80.7436 -101.35905 -80.7436
4015 3 -79.0257 -99.6411 -79.0257
3904 3 -77.3078 -101.35905 -80.7436
3914 3 -84.1795 -97.92315 -80.7436
3916 4 -80.7436 -97.92315 -80.7436
3986 3 -80.7436 -104.79495 -77.3078
4099 1 -79.0257 -103.077 -75.5898
3988 4 -77.3078 -104.79495 -77.3078
4000 2 -80.7436 -101.35905 -77.3078
4002 2 -77.3078 -101.35905 -77.3078
4222 1 -84.1795 -94.48725 -115.1026
4223 4 -82.4616 -96.2052 -116.8206
4224 2 -80.7436 -94.48725 -115.1026
4319 4 -85.8975 -96.2052 -113.3847
4320 1 -84.1795 -94.48725 -111.6668
4322 1 -80.7436 -94.48725 -111.6668
4323 4 -79.0257 -96.2052 -113.3847
4335 4 -82.4616 -92.7693 -113.3847
4419 4 -82.4616 -96.2052 -109.9488
4679 2 -92.7693 -79.0257 -103.077
4648 3 -73.8718 -87.61545 -101.35905
4763 2 -92.7693 -82.4616 -99.6411
4664 3 -94.48725 -80.7436 -101.35905
4775 3 -96.2052 -79.0257 -99.6411
4666 2 -91.05135 -80.7436 -101.35905
4779 4 -89.3334 -79.0257 -99.6411
4678 4 -94.48725 -77.3078 -101.35905
4680 2 -91.05135 -77.3078 -101.35905
4791 4 -92.7693 -75.5898 -99.6411
4762 3 -94.48725 -80.7436 -97.92315
4764 1 -91.05135 -80.7436 -97.92315
4776 4 -94.48725 -77.3078 -97.92315
4778 1 -91.05135 -77.3078 -97.92315
4803 3 -96.2052 -96.2052 -96.2052
4804 4 -94.48725 -94.48725 -94.48725
4875 3 -92.7693 -79.0257 -96.2052
4902 3 -94.48725 -94.48725 -91.05135
4903 1 -92.7693 -96.2052 -92.7693
4904 4 -91.05135 -94.48725 -91.05135
4915 3 -96.2052 -92.7693 -92.7693
4999 1 -96.2052 -96.2052 -89.3334
5000 1 -94.48725 -94.48725 -87.61545
5001 4 -92.7693 -96.2052 -89.3334
5003 1 -89.3334 -96.2052 -89.3334
5004 2 -87.61545 -94.48725 -87.61545
5015 4 -92.7693 -92.7693 -89.3334
5016 1 -91.05135 -91.05135 -87.61545
5017 1 -89.3334 -92.7693 -89.3334
5096 2 -73.8718 -73.8718 -87.61545
5099 2 -92.7693 -96.2052 -85.8975
5101 2 -89.3334 -96.2052 -85.8975
5105 3 -82.4616 -96.2052 -85.8975
5113 2 -92.7693 -92.7693 -85.8975
5115 3 -89.3334 -92.7693 -85.8975
5100 3 -91.05135 -94.48725 -84.1795
5201 4 -85.8975 -96.2052 -82.4616
5104 3 -84.1795 -94.48725 -84.1795
5106 2 -80.7436 -94.48725 -84.1795
5205 1 -79.0257 -96.2052 -82.4616
5217 4 -82.4616 -92.7693 -82.4616
5194 1 -73.8718 -73.8718 -84.1795
5202 4 -84.1795 -94.48725 -80.7436
5301 1 -82.4616 -96.2052 -79.0257
5204 4 -80.7436 -94.48725 -80.7436
5302 2 -118.5386 -118.5386 -70.436
5399 1 -120.2565 -120.2565 -68.718
5401 1 -116.8206 -120.2565 -68.718
5402 2 -115.1026 -118.5386 -67.0
5413 2 -120.2565 -116.8206 -68.718
5414 4 -118.5386 -115.1026 -67.0
5415 3 -116.8206 -116.8206 -68.718
5497 2 -120.2565 -120.2565 -65.2821
5498 3 -118.5386 -118.5386 -63.5642
5499 1 -116.8206 -120.2565 -65.2821
5504 2 -108.2309 -118.5386 -63.5642
5511 2 -120.2565 -116.8206 -65.2821
5513 2 -116.8206 -116.8206 -65.2821
5567 1 -120.2565 -103.077 -65.2821
5601 3 -109.9488 -120.2565 -61.8462
5603 4 -106.5129 -120.2565 -61.8462
5615 3 -109.9488 -116.8206 -61.8462
5617 1 -106.5129 -116.8206 -61.8462
5600 2 -111.6668 -118.5386 -60.1283
5699 3 -109.9488 -120.2565 -58.4103
5701 2 -106.5129 -120.2565 -58.4103
5604 1 -104.79495 -118.5386 -60.1283
5713 4 -109.9488 -116.8206 -58.4103
5616 4 -108.2309 -115.1026 -60.1283
5715 3 -106.5129 -116.8206 -58.4103
5700 2 -108.2309 -118.5386 -56.69235
5799 2 -106.5129 -120.2565 -54.9744
5702 2 -104.79495 -118.5386 -56.69235
5801 3 -103.077 -120.2565 -54.9744
5813 3 -106.5129 -116.8206 -54.9744
5815 1 -103.077 -116.8206 -54.9744
5798 1 -108.2309 -118.5386 -53.25645
5897 2 -106.5129 -120.2565 -51.5385
5899 3 -103.077 -120.2565 -51.5385
5802 3 -101.35905 -118.5386 -53.25645
5911 3 -106.5129 -116.8206 -51.5385
5814 3 -104.79495 -115.1026 -53.25645
5913 2 -103.077 -116.8206 -51.5385
5965 3 -109.9488 -103.077 -51.5385
5967 3 -106.5129 -103.077 -51.5385
5979 3 -109.9488 -99.6411 -51.5385
5868 1 -108.2309 -101.35905 -53.25645
5981 3 -106.5129 -99.6411 -51.5385
5898 4 -104.79495 -118.5386 -49.82055
5952 1 -108.2309 -104.79495 -49.82055
5964 3 -111.6668 -101.35905 -49.82055
5968 1 -104.79495 -101.35905 -49.82055
5980 3 -108.2309 -97.92315 -49.82055
6022 4 -108.2309 -111.6668 -46.38465
6063 4 -109.9488 -103.077 -48.1026
6065 4 -106.5129 -103.077 -48.1026
6077 4 -109.9488 -99.6411 -48.1026
6064 4 -108.2309 -101.35905 -46.38465
6079 3 -106.5129 -99.6411 -48.1026
6084 4 -97.92315 -97.92315 -46.38465
6106 2 -108.2309 -115.1026 -42.94875
6118 4 -111.6668 -111.6668 -42.94875
6119 4 -109.9488 -113.3847 -44.6667
6121 4 -106.5129 -113.3847 -44.6667
6122 3 -104.79495 -111.6668 -42.94875
6133 1 -109.9488 -109.9488 -44.6667
6135 4 -106.5129 -109.9488 -44.6667
6134 2 -108.2309 -108.2309 -42.94875
6182 4 -97.92315 -97.92315 -42.94875
6183 2 -120.2565 -120.2565 -41.2308
6184 4 -118.5386 -118.5386 -39.51285
6217 1 -109.9488 -113.3847 -41.2308
6218 3 -108.2309 -111.6668 -39.51285
6219 1 -106.5129 -113.3847 -41.2308
6231 2 -109.9488 -109.9488 -41.2308
6233 1 -106.5129 -109.9488 -41.2308
6283 1 -116.8206 -120.2565 -37.7949
6295 4 -120.2565 -116.8206 -37.7949
6282 3 -118.5386 -118.5386 -36.0769
6379 3 -120.2565 -120.2565 -34.359
6423 4 -116.8206 -109.9488 -34.359
6408 1 -118.5386 -111.6668 -32.641
6410 3 -115.1026 -111.6668 -32.641
6507 3 -116.8206 -113.3847 -30.9231
6519 1 -120.2565 -109.9488 -30.9231
6523 2 -113.3847 -109.9488 -30.9231
6422 4 -118.5386 -108.2309 -32.641
6424 4 -115.1026 -108.2309 -32.641
6535 1 -116.8206 -106.5129 -30.9231
6506 3 -118.5386 -111.6668 -29.2052
6508 3 -115.1026 -111.6668 -29.2052
6619 1 -116.8206 -109.9488 -27.4872
6520 3 -118.5386 -108.2309 -29.2052
6522 3 -115.1026 -108.2309 -29.2052
6856 3 -118.5386 -73.8718 -67.0
7058 3 -108.2309 -73.8718 -60.1283
7094 1 -118.5386 -87.61545 -56.69235
7191 3 -120.2565 -89.3334 -54.9744
7193 1 -116.8206 -89.3334 -54.9744
7205 4 -120.2565 -85.8975 -54.9744
7207 1 -116.8206 -85.8975 -54.9744
7178 2 -118.5386 -91.05135 -53.25645
7289 2 -120.2565 -89.3334 -51.5385
7194 3 -115.1026 -87.61545 -53.25645
7291 1 -116.8206 -89.3334 -51.5385
7303 4 -120.2565 -85.8975 -51.5385
7305 1 -116.8206 -85.8975 -51.5385
7206 3 -118.5386 -84.1795 -53.25645
7256 1 -104.79495 -73.8718 -53.25645
7290 1 -118.5386 -87.61545 -49.82055
7372 3 -97.92315 -94.48725 -46.38465
7469 3 -99.6411 -96.2052 -44.6667
7470 3 -97.92315 -94.48725 -42.94875
7480 3 -104.79495 -91.05135 -42.94875
7482 3 -101.35905 -91.05135 -42.94875
7494 4 -104.79495 -87.61545 -42.94875
7495 1 -103.077 -89.3334 -44.6667
7496 2 -101.35905 -87.61545 -42.94875
7578 4 -104.79495 -91.05135 -39.51285
7579 3 -103.077 -92.7693 -41.2308
7580 2 -101.35905 -91.05135 -39.51285
7591 4 -106.5129 -89.3334 -41.2308
7592 2 -104.79495 -87.61545 -39.51285
7594 2 -101.35905 -87.61545 -39.51285
7595 2 -99.6411 -89.3334 -41.2308
7607 2 -103.077 -85.8975 -41.2308
7640 2 -118.5386 -73.8718 -39.51285
7691 4 -103.077 -89.3334 -37.7949
7737 3 -120.2565 -75.5898 -37.7949
7738 1 -118.5386 -73.8718 -36.0769
8156 1 -73.8718 -118.5386 -67.0
8186 2 -94.48725 -108.2309 -67.0
8188 1 -91.05135 -108.2309 -67.0
8201 4 -92.7693 -106.5129 -68.718
8200 3 -94.48725 -104.79495 -67.0
8202 2 -91.05135 -104.79495 -67.0
8210 2 -77.3078 -104.79495 -67.0
8225 4 -75.5898 -103.077 -68.718
8212 2 -73.8718 -104.79495 -67.0
8224 2 -77.3078 -101.35905 -67.0
8226 3 -73.8718 -101.35905 -67.0
8234 1 -84.1795 -97.92315 -67.0
8236 3 -80.7436 -97.92315 -67.0
8285 3 -92.7693 -109.9488 -65.2821
8284 4 -94.48725 -108.2309 -63.5642
8297 4 -96.2052 -106.5129 -65.2821
8286 2 -91.05135 -108.2309 -63.5642
8301 2 -89.3334 -106.5129 -65.2821
8309 3 -75.5898 -106.5129 -65.2821
8298 3 -94.48725 -104.79495 -63.5642
8300 4 -91.05135 -104.79495 -63.5642
8313 4 -92.7693 -103.077 -65.2821
8321 2 -79.0257 -103.077 -65.2821
8308 2 -77.3078 -104.79495 -63.5642
8310 2 -73.8718 -104.79495 -63.5642
8333 3 -82.4616 -99.6411 -65.2821
8322 1 -77.3078 -101.35905 -63.5642
8337 1 -75.5898 -99.6411 -65.2821
8324 4 -73.8718 -101.35905 -63.5642
8332 3 -84.1795 -97.92315 -63.5642
8334 4 -80.7436 -97.92315 -63.5642
8397 1 -92.7693 -106.5129 -61.8462
8421 3 -75.5898 -103.077 -61.8462
8816 1 -94.48725 -97.92315 -46.38465
8838 3 -80.7436 -118.5386 -42.94875
8840 3 -77.3078 -118.5386 -42.94875
8852 1 -80.7436 -115.1026 -42.94875
8853 2 -79.0257 -116.8206 -44.6667
8854 3 -77.3078 -115.1026 -42.94875
8913 3 -96.2052 -99.6411 -44.6667
8914 1 -94.48725 -97.92315 -42.94875
8936 4 -80.7436 -118.5386 -39.51285
8937 3 -79.0257 -120.2565 -41.2308
8938 2 -77.3078 -118.5386 -39.51285
8940 4 -73.8718 -118.5386 -39.51285
8949 3 -82.4616 -116.8206 -41.2308
8950 2 -80.7436 -115.1026 -39.51285
8952 3 -77.3078 -115.1026 -39.51285
8953 3 -75.5898 -116.8206 -41.2308
8965 3 -79.0257 -113.3847 -41.2308
9014 4 -91.05135 -97.92315 -39.51285
9037 1 -75.5898 -120.2565 -37.7949
9049 2 -79.0257 -116.8206 -37.7949
9038 4 -73.8718 -118.5386 -36.0769
9203 3 -79.0257 -103.077 -34.359
9215 1 -82.4616 -99.6411 -34.359
9116 2 -84.1795 -97.92315 -36.0769
9118 2 -80.7436 -97.92315 -36.0769
9287 2 -79.0257 -106.5129 -30.9231
9299 3 -82.4616 -103.077 -30.9231
9188 3 -80.7436 -104.79495 -32.641
9190 3 -77.3078 -104.79495 -32.641
9303 1 -75.5898 -103.077 -30.9231
9202 2 -80.7436 -101.35905 -32.641
9315 3 -79.0257 -99.6411 -30.9231
9204 3 -77.3078 -101.35905 -32.641
9214 3 -84.1795 -97.92315 -32.641
9216 4 -80.7436 -97.92315 -32.641
9286 3 -80.7436 -104.79495 -29.2052
9399 1 -79.0257 -103.077 -27.4872
9288 4 -77.3078 -104.79495 -29.2052
9300 2 -80.7436 -101.35905 -29.2052
9302 2 -77.3078 -101.35905 -29.2052
9522 1 -84.1795 -94.48725 -67.0
9523 4 -82.4616 -96.2052 -68.718
9524 2 -80.7436 -94.48725 -67.0
9619 4 -85.8975 -96.2052 -65.2821
9620 1 -84.1795 -94.48725 -63.5642
9622 1 -80.7436 -94.48725 -63.5642
9623 4 -79.0257 -96.2052 -65.2821
9635 4 -82.4616 -92.7693 -65.2821
9719 4 -82.4616 -96.2052 -61.8462
9979 2 -92.7693 -79.0257 -54.9744
9948 3 -73.8718 -87.61545 -53.25645
10063 2 -92.7693 -82.4616 -51.5385
9964 3 -94.48725 -80.7436 -53.25645
10075 3 -96.2052 -79.0257 -51.5385
9966 2 -91.05135 -80.7436 -53.25645
10079 4 -89.3334 -79.0257 -51.5385
9978 4 -94.48725 -77.3078 -53.25645
9980 2 -91.05135 -77.3078 -53.25645
10091 4 -92.7693 -75.5898 -51.5385
10062 3 -94.48725 -80.7436 -49.82055
10064 1 -91.05135 -80.7436 -49.82055
10076 4 -94.48725 -77.3078 -49.82055
10078 1 -91.05135 -77.3078 -49.82055
10103 3 -96.2052 -96.2052 -48.1026
10104 4 -94.48725 -94.48725 -46.38465
10175 3 -92.7693 -79.0257 -48.1026
10202 3 -94.48725 -94.48725 -42.94875
10203 1 -92.7693 -96.2052 -44.6667
10204 4 -91.05135 -94.48725 -42.94875
10215 3 -96.2052 -92.7693 -44.6667
10299 1 -96.2052 -96.2052 -41.2308
10300 1 -94.48725 -94.48725 -39.51285
10301 4 -92.7693 -96.2052 -41.2308
10303 1 -89.3334 -96.2052 -41.2308
10304 2 -87.61545 -94.48725 -39.51285
10315 4 -92.7693 -92.7693 -41.2308
10316 1 -91.05135 -91.05135 -39.51285
10317 1 -89.3334 -92.7693 -41.2308
10396 2 -73.8718 -73.8718 -39.51285
10399 2 -92.7693 -96.2052 -37.7949
10401 2 -89.3334 -96.2052 -37.7949
10405 3 -82.4616 -96.2052 -37.7949
10413 2 -92.7693 -92.7693 -37.7949
10415 3 -89.3334 -92.7693 -37.7949
10400 3 -91.05135 -94.48725 -36.0769
10501 4 -85.8975 -96.2052 -34.359
10404 3 -84.1795 -94.48725 -36.0769
10406 2 -80.7436 -94.48725 -36.0769
10505 1 -79.0257 -96.2052 -34.359
10517 4 -82.4616 -92.7693 -34.359
10494 1 -73.8718 -73.8718 -36.0769
10502 4 -84.1795 -94.48725 -32.641
10601 1 -82.4616 -96.2052 -30.9231
10504 4 -80.7436 -94.48725 -32.641
10602 2 -118.5386 -118.5386 -22.3334
10699 1 -120.2565 -120.2565 -20.6154
10701 1 -116.8206 -120.2565 -20.6154
10702 2 -115.1026 -118.5386 -18.8974
10713 2 -120.2565 -116.8206 -20.6154
10714 4 -118.5386 -115.1026 -18.8974
10715 3 -116.8206 -116.8206 -20.6154
10797 2 -120.2565 -120.2565 -17.1795
10798 3 -118.5386 -118.5386 -15.4616
10799 1 -116.8206 -120.2565 -17.1795
10804 2 -108.2309 -118.5386 -15.4616
10811 2 -120.2565 -116.8206 -17.1795
10813 2 -116.8206 -116.8206 -17.1795
10867 1 -120.2565 -103.077 -17.1795
10901 3 -109.9488 -120.2565 -13.7436
10903 4 -106.5129 -120.2565 -13.7436
10915 3 -109.9488 -116.8206 -13.7436
10917 1 -106.5129 -116.8206 -13.7436
10900 2 -111.6668 -118.5386 -12.0257
10999 3 -109.9488 -120.2565 -10.3077
11001 2 -106.5129 -120.2565 -10.3077
10904 1 -104.79495 -118.5386 -12.0257
11013 4 -109.9488 -116.8206 -10.3077
10916 4 -108.2309 -115.1026 -12.0257
11015 3 -106.5129 -116.8206 -10.3077
11000 2 -108.2309 -118.5386 -8.58975
11099 2 -106.5129 -120.2565 -6.8718
11002 2 -104.79495 -118.5386 -8.58975
11101 3 -103.077 -120.2565 -6.8718
11113 3 -106.5129 -116.8206 -6.8718
11115 1 -103.077 -116.8206 -6.8718
11098 1 -108.2309 -118.5386 -5.15385
11197 2 -106.5129 -120.2565 -3.4359
11199 3 -103.077 -120.2565 -3.4359
11102 3 -101.35905 -118.5386 -5.15385
11211 3 -106.5129 -116.8206 -3.4359
11114 3 -104.79495 -115.1026 -5.15385
11213 2 -103.077 -116.8206 -3.4359
11265 3 -109.9488 -103.077 -3.4359
11267 3 -106.5129 -103.077 -3.4359
11279 3 -109.9488 -99.6411 -3.4359
11168 1 -108.2309 -101.35905 -5.15385
11281 3 -106.5129 -99.6411 -3.4359
11198 4 -104.79495 -118.5386 -1.71795
11252 1 -108.2309 -104.79495 -1.71795
11264 3 -111.6668 -101.35905 -1.71795
11268 1 -104.79495 -101.35905 -1.71795
11280 3 -108.2309 -97.92315 -1.71795
11322 4 -108.2309 -111.6668 1.71795
11363 4 -109.9488 -103.077 0.0
11365 4 -106.5129 -103.077 0.0
11377 4 -109.9488 -99.6411 0.0
11364 4 -108.2309 -101.35905 1.71795
11379 3 -106.5129 -99.6411 0.0
11384 4 -97.92315 -97.92315 1.71795
11406 2 -108.2309 -115.1026 5.15385
11418 4 -111.6668 -111.6668 5.15385
11419 4 -109.9488 -113.3847 3.4359
11421 4 -106.5129 -113.3847 3.4359
11422 3 -104.79495 -111.6668 5.15385
11433 1 -109.9488 -109.9488 3.4359
11435 4 -106.5129 -109.9488 3.4359
11434 2 -108.2309 -108.2309 5.15385
11482 4 -97.92315 -97.92315 5.15385
11483 2 -120.2565 -120.2565 6.8718
11484 4 -118.5386 -118.5386 8.58975
11517 1 -109.9488 -113.3847 6.8718
11518 3 -108.2309 -111.6668 8.58975
11519 1 -106.5129 -113.3847 6.8718
11531 2 -109.9488 -109.9488 6.8718
11533 1 -106.5129 -109.9488 6.8718
11583 1 -116.8206 -120.2565 10.3077
11595 4 -120.2565 -116.8206 10.3077
11582 3 -118.5386 -118.5386 12.0257
11679 3 -120.2565 -120.2565 13.7436
11723 4 -116.8206 -109.9488 13.7436
11708 1 -118.5386 -111.6668 15.4616
11710 3 -115.1026 -111.6668 15.4616
11807 3 -116.8206 -113.3847 17.1795
11819 1 -120.2565 -109.9488 17.1795
11823 2 -113.3847 -109.9488 17.1795
11722 4 -118.5386 -108.2309 15.4616
11724 4 -115.1026 -108.2309 15.4616
11835 1 -116.8206 -106.5129 17.1795
11806 3 -118.5386 -111.6668 18.8974
11808 3 -115.1026 -111.6668 18.8974
11919 1 -116.8206 -109.9488 20.6154
11820 3 -118.5386 -108.2309 18.8974
11822 3 -115.1026 -108.2309 18.8974
12156 3 -118.5386 -73.8718 -18.8974
12358 3 -108.2309 -73.8718 -12.0257
12394 1 -118.5386 -87.61545 -8.58975
12491 3 -120.2565 -89.3334 -6.8718
12493 1 -116.8206 -89.3334 -6.8718
12505 4 -120.2565 -85.8975 -6.8718
12507 1 -116.8206 -85.8975 -6.8718
12478 2 -118.5386 -91.05135 -5.15385
12589 2 -120.2565 -89.3334 -3.4359
12494 3 -115.1026 -87.61545 -5.15385
12591 1 -116.8206 -89.3334 -3.4359
12603 4 -120.2565 -85.8975 -3.4359
12605 1 -116.8206 -85.8975 -3.4359
12506 3 -118.5386 -84.1795 -5.15385
12556 1 -104.79495 -73.8718 -5.15385
12590 1 -118.5386 -87.61545 -1.71795
12672 3 -97.92315 -94.48725 1.71795
12769 3 -99.6411 -96.2052 3.4359
12770 3 -97.92315 -94.48725 5.15385
12780 3 -104.79495 -91.05135 5.15385
12782 3 -101.35905 -91.05135 5.15385
12794 4 -104.79495 -87.61545 5.15385
12795 1 -103.077 -89.3334 3.4359
12796 2 -101.35905 -87.61545 5.15385
12878 4 -104.79495 -91.05135 8.58975
12879 3 -103.077 -92.7693 6.8718
12880 2 -101.35905 -91.05135 8.58975
12891 4 -106.5129 -89.3334 6.8718
12892 2 -104.79495 -87.61545 8.58975
12894 2 -101.35905 -87.61545 8.58975
12895 2 -99.6411 -89.3334 6.8718
12907 2 -103.077 -85.8975 6.8718
12940 2 -118.5386 -73.8718 8.58975
12991 4 -103.077 -89.3334 10.3077
13037 3 -120.2565 -75.5898 10.3077
13038 1 -118.5386 -73.8718 12.0257
13456 1 -73.8718 -118.5386 -18.8974
13486 2 -94.48725 -108.2309 -18.8974
13488 1 -91.05135 -108.2309 -18.8974
13501 4 -92.7693 -106.5129 -20.6154
13500 3 -94.48725 -104.79495 -18.8974
13502 2 -91.05135 -104.79495 -18.8974
13510 2 -77.3078 -104.79495 -18.8974
13525 4 -75.5898 -103.077 -20.6154
13512 2 -73.8718 -104.79495 -18.8974
13524 2 -77.3078 -101.35905 -18.8974
13526 3 -73.8718 -101.35905 -18.8974
13534 1 -84.1795 -97.92315 -18.8974
13536 3 -80.7436 -97.92315 -18.8974
13585 3 -92.7693 -109.9488 -17.1795
13584 4 -94.48725 -108.2309 -15.4616
13597 4 -96.2052 -106.5129 -17.1795
13586 2 -91.05135 -108.2309 -15.4616
13601 2 -89.3334 -106.5129 -17.1795
13609 3 -75.5898 -106.5129 -17.1795
13598 3 -94.48725 -104.79495 -15.4616
13600 4 -91.05135 -104.79495 -15.4616
13613 4 -92.7693 -103.077 -17.1795
13621 2 -79.0257 -103.077 -17.1795
13608 2 -77.3078 -104.79495 -15.4616
13610 2 -73.8718 -104.79495 -15.4616
13633 3 -82.4616 -99.6411 -17.1795
13622 1 -77.3078 -101.35905 -15.4616
13637 1 -75.5898 -99.6411 -17.1795
13624 4 -73.8718 -101.35905 -15.4616
13632 3 -84.1795 -97.92315 -15.4616
13634 4 -80.7436 -97.92315 -15.4616
13697 1 -92.7693 -106.5129 -13.7436
13721 3 -75.5898 -103.077 -13.7436
14116 1 -94.48725 -97.92315 1.71795
14138 3 -80.7436 -118.5386 5.15385
14140 3 -77.3078 -118.5386 5.15385
14152 1 -80.7436 -115.1026 5.15385
14153 2 -79.0257 -116.8206 3.4359
14154 3 -77.3078 -115.1026 5.15385
14213 3 -96.2052 -99.6411 3.4359
14214 1 -94.48725 -97.92315 5.15385
14236 4 -80.7436 -118.5386 8.58975
14237 3 -79.0257 -120.2565 6.8718
14238 2 -77.3078 -118.5386 8.58975
14240 4 -73.8718 -118.5386 8.58975
14249 3 -82.4616 -116.8206 6.8718
14250 2 -80.7436 -115.1026 8.58975
14252 3 -77.3078 -115.1026 8.58975
14253 3 -75.5898 -116.8206 6.8718
14265 3 -79.0257 -113.3847 6.8718
14314 4 -91.05135 -97.92315 8.58975
14337 1 -75.5898 -120.2565 10.3077
14349 2 -79.0257 -116.8206 10.3077
14338 4 -73.8718 -118.5386 12.0257
14503 3 -79.0257 -103.077 13.7436
14515 1 -82.4616 -99.6411 13.7436
14416 2 -84.1795 -97.92315 12.0257
14418 2 -80.7436 -97.92315 12.0257
14587 2 -79.0257 -106.5129 17.1795
14599 3 -82.4616 -103.077 17.1795
14488 3 -80.7436 -104.79495 15.4616
14490 3 -77.3078 -104.79495 15.4616
14603 1 -75.5898 -103.077 17.1795
14502 2 -80.7436 -101.35905 15.4616
14615 3 -79.0257 -99.6411 17.1795
14504 3 -77.3078 -101.35905 15.4616
14514 3 -84.1795 -97.92315 15.4616
14516 4 -80.7436 -97.92315 15.4616
14586 3 -80.7436 -104.79495 18.8974
14699 1 -79.0257 -103.077 20.6154
14588 4 -77.3078 -104.79495 18.8974
14600 2 -80.7436 -101.35905 18.8974
14602 2 -77.3078 -101.35905 18.8974
14822 1 -84.1795 -94.48725 -18.8974
14823 4 -82.4616 -96.2052 -20.6154
14824 2 -80.7436 -94.48725 -18.8974
14919 4 -85.8975 -96.2052 -17.1795
14920 1 -84.1795 -94.48725 -15.4616
14922 1 -80.7436 -94.48725 -15.4616
14923 4 -79.0257 -96.2052 -17.1795
14935 4 -82.4616 -92.7693 -17.1795
15019 4 -82.4616 -96.2052 -13.7436
15279 2 -92.7693 -79.0257 -6.8718
15248 3 -73.8718 -87.61545 -5.15385
15363 2 -92.7693 -82.4616 -3.4359
15264 3 -94.48725 -80.7436 -5.15385
15375 3 -96.2052 -79.0257 -3.4359
15266 2 -91.05135 -80.7436 -5.15385
15379 4 -89.3334 -79.0257 -3.4359
15278 4 -94.48725 -77.3078 -5.15385
15280 2 -91.05135 -77.3078 -5.15385
15391 4 -92.7693 -75.5898 -3.4359
15362 3 -94.48725 -80.7436 -1.71795
15364 1 -91.05135 -80.7436 -1.71795
15376 4 -94.48725 -77.3078 -1.71795
15378 1 -91.05135 -77.3078 -1.71795
15403 3 -96.2052 -96.2052 0.0
15404 4 -94.48725 -94.48725 1.71795
15475 3 -92.7693 -79.0257 0.0
15502 3 -94.48725 -94.48725 5.15385
15503 1 -92.7693 -96.2052 3.4359
15504 4 -91.05135 -94.48725 5.15385
15515 3 -96.2052 -92.7693 3.4359
15599 1 -96.2052 -96.2052 6.8718
15600 1 -94.48725 -94.48725 8.58975
15601 4 -92.7693 -96.2052 6.8718
15603 1 -89.3334 -96.2052 6.8718
15604 2 -87.61545 -94.48725 8.58975
15615 4 -92.7693 -92.7693 6.8718
15616 1 -91.05135 -91.05135 8.58975
15617 1 -89.3334 -92.7693 6.8718
15696 2 -73.8718 -73.8718 8.58975
15699 2 -92.7693 -96.2052 10.3077
15701 2 -89.3334 -96.2052 10.3077
15705 3 -82.4616 -96.2052 10.3077
15713 2 -92.7693 -92.7693 10.3077
15715 3 -89.3334 -92.7693 10.3077
15700 3 -91.05135 -94.48725 12.0257
15801 4 -85.8975 -96.2052 13.7436
15704 3 -84.1795 -94.48725 12.0257
15706 2 -80.7436 -94.48725 12.0257
15805 1 -79.0257 -96.2052 13.7436
15817 4 -82.4616 -92.7693 13.7436
15794 1 -73.8718 -73.8718 12.0257
15802 4 -84.1795 -94.48725 15.4616
15901 1 -82.4616 -96.2052 17.1795
15804 4 -80.7436 -94.48725 15.4616
15902 2 -118.5386 -118.5386 25.7692
15999 1 -120.2565 -120.2565 27.4872
16001 1 -116.8206 -120.2565 27.4872
16002 2 -115.1026 -118.5386 29.2052
16013 2 -120.2565 -116.8206 27.4872
16014 4 -118.5386 -115.1026 29.2052
16015 3 -116.8206 -116.8206 27.4872
16097 2 -120.2565 -120.2565 30.9231
16098 3 -118.5386 -118.5386 32.641
16099 1 -116.8206 -120.2565 30.9231
16104 2 -108.2309 -118.5386 32.641
16111 2 -120.2565 -116.8206 30.9231
16113 2 -116.8206 -116.8206 30.9231
16167 1 -120.2565 -103.077 30.9231
16201 3 -109.9488 -120.2565 34.359
16203 4 -106.5129 -120.2565 34.359
16215 3 -109.9488 -116.8206 34.359
16217 1 -106.5129 -116.8206 34.359
16200 2 -111.6668 -118.5386 36.0769
16299 3 -109.9488 -120.2565 37.7949
16301 2 -106.5129 -120.2565 37.7949
16204 1 -104.79495 -118.5386 36.0769
16313 4 -109.9488 -116.8206 37.7949
16216 4 -108.2309 -115.1026 36.0769
16315 3 -106.5129 -116.8206 37.7949
16300 2 -108.2309 -118.5386 39.51285
16399 2 -106.5129 -120.2565 41.2308
16302 2 -104.79495 -118.5386 39.51285
16401 3 -103.077 -120.2565 41.2308
16413 3 -106.5129 -116.8206 41.2308
16415 1 -103.077 -116.8206 41.2308
16398 1 -108.2309 -118.5386 42.94875
16497 2 -106.5129 -120.2565 44.6667
16499 3 -103.077 -120.2565 44.6667
16402 3 -101.35905 -118.5386 42.94875
16511 3 -106.5129 -116.8206 44.6667
16414 3 -104.79495 -115.1026 42.94875
16513 2 -103.077 -116.8206 44.6667
16565 3 -109.9488 -103.077 44.6667
16567 3 -106.5129 -103.077 44.6667
16579 3 -109.9488 -99.6411 44.6667
16468 1 -108.2309 -101.35905 42.94875
16581 3 -106.5129 -99.6411 44.6667
16498 4 -104.79495 -118.5386 46.38465
16552 1 -108.2309 -104.79495 46.38465
16564 3 -111.6668 -101.35905 46.38465
16568 1 -104.79495 -101.35905 46.38465
16580 3 -108.2309 -97.92315 46.38465
16622 4 -108.2309 -111.6668 49.82055
16663 4 -109.9488 -103.077 48.1026
16665 4 -106.5129 -103.077 48.1026
16677 4 -109.9488 -99.6411 48.1026
16664 4 -108.2309 -101.35905 49.82055
16679 3 -106.5129 -99.6411 48.1026
16684 4 -97.92315 -97.92315 49.82055
16706 2 -108.2309 -115.1026 53.25645
16718 4 -111.6668 -111.6668 53.25645
16719 4 -109.9488 -113.3847 51.5385
16721 4 -106.5129 -113.3847 51.5385
16722 3 -104.79495 -111.6668 53.25645
16733 1 -109.9488 -109.9488 51.5385
16735 4 -106.5129 -109.9488 51.5385
16734 2 -108.2309 -108.2309 53.25645
16782 4 -97.92315 -97.92315 53.25645
16783 2 -120.2565 -120.2565 54.9744
16784 4 -118.5386 -118.5386 56.69235
16817 1 -109.9488 -113.3847 54.9744
16818 3 -108.2309 -111.6668 56.69235
16819 1 -106.5129 -113.3847 54.9744
16831 2 -109.9488 -109.9488 54.9744
16833 1 -106.5129 -109.9488 54.9744
16883 1 -116.8206 -120.2565 58.4103
16895 4 -120.2565 -116.8206 58.4103
16882 3 -118.5386 -118.5386 60.1283
16979 3 -120.2565 -120.2565 61.8462
17023 4 -116.8206 -109.9488 61.8462
17008 1 -118.5386 -111.6668 63.5642
17010 3 -115.1026 -111.6668 63.5642
17107 3 -116.8206 -113.3847 65.2821
17119 1 -120.2565 -109.9488 65.2821
17123 2 -113.3847 -109.9488 65.2821